
     Program PWSCF v.6.3MaX starts on 26Nov2020 at  9:15: 5 

     This program is part of the open-source Quantum ESPRESSO suite
     for quantum simulation of materials; please cite
         "P. Giannozzi et al., J. Phys.:Condens. Matter 21 395502 (2009);
         "P. Giannozzi et al., J. Phys.:Condens. Matter 29 465901 (2017);
          URL http://www.quantum-espresso.org", 
     in publications or presentations arising from this work. More details at
     http://www.quantum-espresso.org/quote

     Parallel version (MPI), running on     8 processors

     MPI processes distributed on     2 nodes
     R & G space division:  proc/nbgrp/npool/nimage =       8
     Waiting for input...
     Reading input from standard input

     Current dimensions of program PWSCF are:
     Max number of different atomic species (ntypx) = 10
     Max number of k-points (npk) =  40000
     Max angular momentum in pseudopotentials (lmaxx) =  3

     Subspace diagonalization in iterative solution of the eigenvalue problem:
     a serial algorithm will be used

 
     Parallelization info
     --------------------
     sticks:   dense  smooth     PW     G-vecs:    dense   smooth      PW
     Min        3123    3123    778               448599   448599   56048
     Max        3124    3124    779               448604   448604   56052
     Sum       24985   24985   6229              3588803  3588803  448403
 


     bravais-lattice index     =            4
     lattice parameter (alat)  =      33.6810  a.u.
     unit-cell volume          =   37130.3117 (a.u.)^3
     number of atoms/cell      =           31
     number of atomic types    =            1
     number of electrons       =        93.00
     number of Kohn-Sham states=           56
     kinetic-energy cutoff     =      80.0000  Ry
     charge density cutoff     =     320.0000  Ry
     convergence threshold     =      1.0E-06
     mixing beta               =       0.4000
     number of iterations used =            8  plain     mixing
     Exchange-correlation      = PBE ( 1  4  3  4 0 0)
     nstep                     =          300


     celldm(1)=  33.680967  celldm(2)=   0.000000  celldm(3)=   1.122133
     celldm(4)=   0.000000  celldm(5)=   0.000000  celldm(6)=   0.000000

     crystal axes: (cart. coord. in units of alat)
               a(1) = (   1.000000   0.000000   0.000000 )  
               a(2) = (  -0.500000   0.866025   0.000000 )  
               a(3) = (   0.000000   0.000000   1.122133 )  

     reciprocal axes: (cart. coord. in units 2 pi/alat)
               b(1) = (  1.000000  0.577350  0.000000 )  
               b(2) = (  0.000000  1.154701  0.000000 )  
               b(3) = (  0.000000  0.000000  0.891160 )  


     PseudoPot. # 1 for Al read from file:
     ./Al.upf
     MD5 check sum: 4974d48a734c9d7d1eb6780a1419d19d
     Pseudo is Norm-conserving + core correction, Zval =  3.0
     Generated using ONCVPSP code by D. R. Hamann
     Using radial grid of 1876 points,  6 beta functions with: 
                l(1) =   0
                l(2) =   0
                l(3) =   1
                l(4) =   1
                l(5) =   2
                l(6) =   2

     atomic species   valence    mass     pseudopotential
        Al             3.00    29.98200     Al( 1.00)

      4 Sym. Ops. (no inversion) found ( 2 have fractional translation)



   Cartesian axes

     site n.     atom                  positions (alat units)
         1           Al  tau(   1) = (  -0.0000000   0.1443393   0.0000000  )
         2           Al  tau(   2) = (   0.1250015   0.0721696   0.0000000  )
         3           Al  tau(   3) = (  -0.1249997   0.3608472   0.0000000  )
         4           Al  tau(   4) = (   0.0000018   0.2886775   0.0000000  )
         5           Al  tau(   5) = (  -0.2499994   0.5773550   0.0000000  )
         6           Al  tau(   6) = (  -0.1249979   0.5051854   0.0000000  )
         7           Al  tau(   7) = (  -0.3749991   0.7938629   0.0000000  )
         8           Al  tau(   8) = (  -0.2499976   0.7216932   0.0000000  )
         9           Al  tau(   9) = (   0.2500011   0.1443403   0.0000000  )
        10           Al  tau(  10) = (   0.3750027   0.0721706   0.0000000  )
        11           Al  tau(  11) = (   0.1250014   0.3608482   0.0000000  )
        12           Al  tau(  12) = (   0.2500030   0.2886785   0.0000000  )
        13           Al  tau(  13) = (   0.0000017   0.5773560   0.0000000  )
        14           Al  tau(  14) = (   0.1250033   0.5051864   0.0000000  )
        15           Al  tau(  15) = (  -0.1249980   0.7938639   0.0000000  )
        16           Al  tau(  16) = (   0.0000036   0.7216942   0.0000000  )
        17           Al  tau(  17) = (   0.5000023   0.1443413   0.0000000  )
        18           Al  tau(  18) = (   0.6250038   0.0721717   0.0000000  )
        19           Al  tau(  19) = (   0.3750026   0.3608492   0.0000000  )
        20           Al  tau(  20) = (   0.5000041   0.2886795   0.0000000  )
        21           Al  tau(  21) = (   0.2500029   0.5773571   0.0000000  )
        22           Al  tau(  22) = (   0.3750044   0.5051874   0.0000000  )
        23           Al  tau(  23) = (   0.1250032   0.7938649   0.0000000  )
        24           Al  tau(  24) = (   0.2500047   0.7216953   0.0000000  )
        25           Al  tau(  25) = (   0.7500035   0.1443423   0.0000000  )
        26           Al  tau(  26) = (   0.8750050   0.0721727   0.0000000  )
        27           Al  tau(  27) = (   0.6250038   0.3608502   0.0000000  )
        28           Al  tau(  28) = (   0.5000041   0.5773581   0.0000000  )
        29           Al  tau(  29) = (   0.6250056   0.5051884   0.0000000  )
        30           Al  tau(  30) = (   0.3750044   0.7938660   0.0000000  )
        31           Al  tau(  31) = (   0.5000059   0.7216963   0.0000000  )

     number of k points=     1  Methfessel-Paxton smearing, width (Ry)=  0.0500
                       cart. coord. in units 2pi/alat
        k(    1) = (   0.0000000   0.0000000   0.0000000), wk =   2.0000000

     Dense  grid:  3588803 G-vectors     FFT dimensions: ( 192, 192, 216)

     Estimated max dynamical RAM per process >       1.15 GB

     Estimated total dynamical RAM >       9.23 GB

     Initial potential from superposition of free atoms

     starting charge   92.92414, renormalised to   93.00000

     negative rho (up, down):  9.278E-05 0.000E+00
     Starting wfcs are  124 randomized atomic wfcs

     total cpu time spent up to now is       28.9 secs

     Self-consistent Calculation

     iteration #  1     ecut=    80.00 Ry     beta= 0.40
     Davidson diagonalization with overlap
     ethr =  1.00E-02,  avg # of iterations =  2.0

     total cpu time spent up to now is       54.8 secs

     total energy              =    -140.64220290 Ry
     Harris-Foulkes estimate   =    -141.23601270 Ry
     estimated scf accuracy    <       1.54855223 Ry

     iteration #  2     ecut=    80.00 Ry     beta= 0.40
     Davidson diagonalization with overlap
     ethr =  1.67E-03,  avg # of iterations =  5.0

     negative rho (up, down):  7.318E-08 0.000E+00

     total cpu time spent up to now is       80.9 secs

     total energy              =    -140.21909493 Ry
     Harris-Foulkes estimate   =    -141.45870942 Ry
     estimated scf accuracy    <       6.75158606 Ry

     iteration #  3     ecut=    80.00 Ry     beta= 0.40
     Davidson diagonalization with overlap
     ethr =  1.67E-03,  avg # of iterations =  5.0

     negative rho (up, down):  1.611E-05 0.000E+00

     total cpu time spent up to now is      106.0 secs

     total energy              =    -140.82738340 Ry
     Harris-Foulkes estimate   =    -141.02199139 Ry
     estimated scf accuracy    <       1.16634836 Ry

     iteration #  4     ecut=    80.00 Ry     beta= 0.40
     Davidson diagonalization with overlap
     ethr =  1.25E-03,  avg # of iterations =  1.0

     negative rho (up, down):  3.346E-05 0.000E+00

     total cpu time spent up to now is      124.1 secs

     total energy              =    -140.89886904 Ry
     Harris-Foulkes estimate   =    -140.94413784 Ry
     estimated scf accuracy    <       0.15604884 Ry

     iteration #  5     ecut=    80.00 Ry     beta= 0.40
     Davidson diagonalization with overlap
     ethr =  1.68E-04,  avg # of iterations =  5.0

     negative rho (up, down):  4.038E-05 0.000E+00

     total cpu time spent up to now is      147.0 secs

     total energy              =    -140.91324470 Ry
     Harris-Foulkes estimate   =    -140.95587721 Ry
     estimated scf accuracy    <       0.29945645 Ry

     iteration #  6     ecut=    80.00 Ry     beta= 0.40
     Davidson diagonalization with overlap
     ethr =  1.68E-04,  avg # of iterations =  3.0

     negative rho (up, down):  5.846E-05 0.000E+00

     total cpu time spent up to now is      168.3 secs

     total energy              =    -140.93129104 Ry
     Harris-Foulkes estimate   =    -140.93404581 Ry
     estimated scf accuracy    <       0.01132240 Ry

     iteration #  7     ecut=    80.00 Ry     beta= 0.40
     Davidson diagonalization with overlap
     ethr =  1.22E-05,  avg # of iterations =  9.0

     negative rho (up, down):  7.474E-05 0.000E+00

     total cpu time spent up to now is      203.7 secs

     total energy              =    -140.93520360 Ry
     Harris-Foulkes estimate   =    -140.93742483 Ry
     estimated scf accuracy    <       0.01240399 Ry

     iteration #  8     ecut=    80.00 Ry     beta= 0.40
     Davidson diagonalization with overlap
     ethr =  1.22E-05,  avg # of iterations =  3.0

     negative rho (up, down):  7.966E-05 0.000E+00

     total cpu time spent up to now is      226.5 secs

     total energy              =    -140.93527470 Ry
     Harris-Foulkes estimate   =    -140.93689598 Ry
     estimated scf accuracy    <       0.00962301 Ry

     iteration #  9     ecut=    80.00 Ry     beta= 0.40
     Davidson diagonalization with overlap
     ethr =  1.03E-05,  avg # of iterations =  1.0

     negative rho (up, down):  8.086E-05 0.000E+00

     total cpu time spent up to now is      248.1 secs

     total energy              =    -140.93582764 Ry
     Harris-Foulkes estimate   =    -140.93608782 Ry
     estimated scf accuracy    <       0.00126055 Ry

     iteration # 10     ecut=    80.00 Ry     beta= 0.40
     Davidson diagonalization with overlap
     ethr =  1.36E-06,  avg # of iterations =  6.0

     negative rho (up, down):  8.336E-05 0.000E+00

     total cpu time spent up to now is      275.7 secs

     total energy              =    -140.93607973 Ry
     Harris-Foulkes estimate   =    -140.93611242 Ry
     estimated scf accuracy    <       0.00014093 Ry

     iteration # 11     ecut=    80.00 Ry     beta= 0.40
     Davidson diagonalization with overlap
     ethr =  1.52E-07,  avg # of iterations =  5.0

     negative rho (up, down):  8.422E-05 0.000E+00

     total cpu time spent up to now is      304.1 secs

     total energy              =    -140.93609938 Ry
     Harris-Foulkes estimate   =    -140.93612744 Ry
     estimated scf accuracy    <       0.00010917 Ry

     iteration # 12     ecut=    80.00 Ry     beta= 0.40
     Davidson diagonalization with overlap
     ethr =  1.17E-07,  avg # of iterations =  4.0

     negative rho (up, down):  8.498E-05 0.000E+00

     total cpu time spent up to now is      330.2 secs

     total energy              =    -140.93610087 Ry
     Harris-Foulkes estimate   =    -140.93613861 Ry
     estimated scf accuracy    <       0.00028670 Ry

     iteration # 13     ecut=    80.00 Ry     beta= 0.40
     Davidson diagonalization with overlap
     ethr =  1.17E-07,  avg # of iterations =  3.0

     negative rho (up, down):  8.545E-05 0.000E+00

     total cpu time spent up to now is      352.7 secs

     total energy              =    -140.93611772 Ry
     Harris-Foulkes estimate   =    -140.93611982 Ry
     estimated scf accuracy    <       0.00000912 Ry

     iteration # 14     ecut=    80.00 Ry     beta= 0.40
     Davidson diagonalization with overlap
     ethr =  9.80E-09,  avg # of iterations =  5.0

     negative rho (up, down):  8.560E-05 0.000E+00

     total cpu time spent up to now is      380.8 secs

     total energy              =    -140.93611926 Ry
     Harris-Foulkes estimate   =    -140.93612068 Ry
     estimated scf accuracy    <       0.00000746 Ry

     iteration # 15     ecut=    80.00 Ry     beta= 0.40
     Davidson diagonalization with overlap
     ethr =  8.02E-09,  avg # of iterations =  3.0

     negative rho (up, down):  8.582E-05 0.000E+00

     total cpu time spent up to now is      403.0 secs

     total energy              =    -140.93611964 Ry
     Harris-Foulkes estimate   =    -140.93612042 Ry
     estimated scf accuracy    <       0.00000484 Ry

     iteration # 16     ecut=    80.00 Ry     beta= 0.40
     Davidson diagonalization with overlap
     ethr =  5.21E-09,  avg # of iterations =  1.0

     negative rho (up, down):  8.584E-05 0.000E+00

     total cpu time spent up to now is      423.8 secs

     total energy              =    -140.93611984 Ry
     Harris-Foulkes estimate   =    -140.93612006 Ry
     estimated scf accuracy    <       0.00000107 Ry

     iteration # 17     ecut=    80.00 Ry     beta= 0.40
     Davidson diagonalization with overlap
     ethr =  1.15E-09,  avg # of iterations =  4.0

     negative rho (up, down):  8.596E-05 0.000E+00

     total cpu time spent up to now is      447.5 secs

     End of self-consistent calculation

          k = 0.0000 0.0000 0.0000 (448403 PWs)   bands (ev):

    -9.9530  -9.4486  -9.4331  -9.4326  -9.4261  -9.4256  -9.1458  -8.4050
    -8.4048  -8.3881  -8.3881  -8.3796  -8.3032  -8.2570  -8.2569  -7.5863
    -6.9326  -6.9324  -6.8233  -6.4864  -6.4773  -6.4772  -6.3702  -6.3700
    -5.4639  -4.8436  -4.8434  -4.8371  -4.7357  -4.7354  -4.4782  -4.4683
    -4.4428  -4.4427  -4.1224  -4.1221  -3.9779  -3.4715  -3.4687  -3.4684
    -3.4578  -3.4575  -3.4018  -3.2746  -3.2743  -3.2223  -3.2071  -2.9742
    -2.9652  -2.9652  -2.9389  -2.5201  -2.5197  -2.4494  -2.4475  -2.4314

     the Fermi energy is    -3.0910 ev

!    total energy              =    -140.93611916 Ry
     Harris-Foulkes estimate   =    -140.93612002 Ry
     estimated scf accuracy    <       0.00000100 Ry

     The total energy is the sum of the following terms:

     one-electron contribution =    -502.03629779 Ry
     hartree contribution      =     259.76353045 Ry
     xc contribution           =     -61.33579695 Ry
     ewald contribution        =     162.75341060 Ry
     smearing contrib. (-TS)   =      -0.08096547 Ry

     convergence has been achieved in  17 iterations

     negative rho (up, down):  8.596E-05 0.000E+00

     Forces acting on atoms (cartesian axes, Ry/au):

     atom    1 type  1   force =    -0.00105833    0.00056740    0.00000000
     atom    2 type  1   force =     0.00108918   -0.00055522    0.00000000
     atom    3 type  1   force =    -0.01310536   -0.00751639    0.00000000
     atom    4 type  1   force =     0.00257207   -0.00212676    0.00000000
     atom    5 type  1   force =     0.00000000   -0.00130076    0.00000000
     atom    6 type  1   force =    -0.00064163    0.00324995    0.00000000
     atom    7 type  1   force =    -0.00041547   -0.00030500    0.00000000
     atom    8 type  1   force =     0.00000000    0.00131741    0.00000000
     atom    9 type  1   force =     0.00000000    0.00052857    0.00000000
     atom   10 type  1   force =    -0.00108918   -0.00055522    0.00000000
     atom   11 type  1   force =    -0.00373303   -0.00399019    0.00000000
     atom   12 type  1   force =     0.00000000    0.00230212    0.00000000
     atom   13 type  1   force =    -0.00531016   -0.00115095    0.00000000
     atom   14 type  1   force =     0.00188959    0.00106823    0.00000000
     atom   15 type  1   force =     0.00041547   -0.00030500    0.00000000
     atom   16 type  1   force =     0.00205760   -0.00121982    0.00000000
     atom   17 type  1   force =     0.00105833    0.00056740    0.00000000
     atom   18 type  1   force =    -0.00318959   -0.00107729    0.00000000
     atom   19 type  1   force =     0.00373303   -0.00399019    0.00000000
     atom   20 type  1   force =    -0.00257207   -0.00212676    0.00000000
     atom   21 type  1   force =     0.00000000   -0.00000116    0.00000000
     atom   22 type  1   force =    -0.00188959    0.00106823    0.00000000
     atom   23 type  1   force =    -0.00159312    0.00512697    0.00000000
     atom   24 type  1   force =     0.00000000   -0.00213685    0.00000000
     atom   25 type  1   force =     0.00000000    0.01514884    0.00000000
     atom   26 type  1   force =     0.00318959   -0.00107729    0.00000000
     atom   27 type  1   force =     0.01310536   -0.00751639    0.00000000
     atom   28 type  1   force =     0.00531016   -0.00115095    0.00000000
     atom   29 type  1   force =     0.00064163    0.00324995    0.00000000
     atom   30 type  1   force =     0.00159312    0.00512697    0.00000000
     atom   31 type  1   force =    -0.00205760   -0.00121982    0.00000000

     Total force =     0.031147     Total SCF correction =     0.000831


     Computing stress (Cartesian axis) and pressure


     negative rho (up, down):  8.596E-05 0.000E+00
          total   stress  (Ry/bohr**3)                   (kbar)     P=   -0.57
  -0.00000581   0.00000000   0.00000000         -0.85      0.00      0.00
   0.00000000  -0.00000575   0.00000000          0.00     -0.85      0.00
   0.00000000  -0.00000000   0.00000000          0.00     -0.00      0.00


     BFGS Geometry Optimization

     number of scf cycles    =   1
     number of bfgs steps    =   0

     enthalpy new            =    -140.9361191607 Ry

     new trust radius        =       0.0151488397 bohr
     new conv_thr            =       0.0000010000 Ry

     new unit-cell volume =  37119.57909 a.u.^3 (  5500.55405 Ang^3 )
     density =      0.28059 g/cm^3

CELL_PARAMETERS (alat= 33.68096681)
   0.999854743   0.000000000   0.000000000
  -0.499927372   0.865900855   0.000000000
   0.000000000   0.000000000   1.122132950

ATOMIC_POSITIONS (angstrom)
Al      -0.000560550   2.572518098   0.000000000
Al       2.228179406   1.285814668   0.000000000
Al      -2.234505663   6.426549089   0.000000000
Al       0.001392975   5.143291299   0.000000000
Al      -4.455142637  10.288145920   0.000000000
Al      -2.227878418   9.004444254   0.000000000
Al      -6.682933489  14.146980910   0.000000000
Al      -4.455109957  12.861729880   0.000000000
Al       4.455172974   2.572515746   0.000000000
Al       6.682200393   1.285832862   0.000000000
Al       2.225626802   6.428433002   0.000000000
Al       4.455205654   5.145652815   0.000000000
Al      -0.002778684  10.288243380   0.000000000
Al       2.228634413   9.003308100   0.000000000
Al      -2.227320276  14.146999104   0.000000000
Al       0.001152282  12.860405620   0.000000000
Al       8.910906497   2.572554485   0.000000000
Al      11.136262628   1.285574827   0.000000000
Al       6.684750654   6.428451195   0.000000000
Al       8.909018332   5.143327685   0.000000000
Al       4.455204482  10.288869928   0.000000000
Al       6.681808403   9.003326293   0.000000000
Al       2.226790537  14.149891359   0.000000000
Al       4.455237162  12.859938612   0.000000000
Al      13.365520093   2.580287736   0.000000000
Al      15.594811410   1.285593021   0.000000000
Al      11.144883118   6.426603669   0.000000000
Al       8.913187648  10.288279767   0.000000000
Al      11.138321234   9.004498834   0.000000000
Al       6.683649935  14.149909552   0.000000000
Al       8.909322043  12.860442007   0.000000000



     Writing output data file 28al_planar_2x2_vcr.save/
     NEW-OLD atomic charge density approx. for the potential

     negative rho (up, down):  8.597E-05 0.000E+00
     extrapolated charge   92.97313, renormalised to   93.00000

     total cpu time spent up to now is      524.8 secs

     Self-consistent Calculation

     iteration #  1     ecut=    80.00 Ry     beta= 0.40
     Davidson diagonalization with overlap
     ethr =  1.00E-06,  avg # of iterations =  4.0

     negative rho (up, down):  8.607E-05 0.000E+00

     total cpu time spent up to now is      552.3 secs

     total energy              =    -140.93701292 Ry
     Harris-Foulkes estimate   =    -141.07008816 Ry
     estimated scf accuracy    <       0.00019087 Ry

     iteration #  2     ecut=    80.00 Ry     beta= 0.40
     Davidson diagonalization with overlap
     ethr =  2.05E-07,  avg # of iterations =  8.0

     negative rho (up, down):  8.605E-05 0.000E+00

     total cpu time spent up to now is      583.0 secs

     total energy              =    -140.93686320 Ry
     Harris-Foulkes estimate   =    -140.93737773 Ry
     estimated scf accuracy    <       0.00416231 Ry

     iteration #  3     ecut=    80.00 Ry     beta= 0.40
     Davidson diagonalization with overlap
     ethr =  2.05E-07,  avg # of iterations =  5.0

     negative rho (up, down):  8.602E-05 0.000E+00

     total cpu time spent up to now is      610.2 secs

     total energy              =    -140.93711580 Ry
     Harris-Foulkes estimate   =    -140.93711948 Ry
     estimated scf accuracy    <       0.00001685 Ry

     iteration #  4     ecut=    80.00 Ry     beta= 0.40
     Davidson diagonalization with overlap
     ethr =  1.81E-08,  avg # of iterations =  5.0

     negative rho (up, down):  8.599E-05 0.000E+00

     total cpu time spent up to now is      635.3 secs

     total energy              =    -140.93711585 Ry
     Harris-Foulkes estimate   =    -140.93711938 Ry
     estimated scf accuracy    <       0.00001719 Ry

     iteration #  5     ecut=    80.00 Ry     beta= 0.40
     Davidson diagonalization with overlap
     ethr =  1.81E-08,  avg # of iterations =  3.0

     negative rho (up, down):  8.594E-05 0.000E+00

     total cpu time spent up to now is      657.7 secs

     total energy              =    -140.93711734 Ry
     Harris-Foulkes estimate   =    -140.93711883 Ry
     estimated scf accuracy    <       0.00001035 Ry

     iteration #  6     ecut=    80.00 Ry     beta= 0.40
     Davidson diagonalization with overlap
     ethr =  1.11E-08,  avg # of iterations =  2.0

     negative rho (up, down):  8.589E-05 0.000E+00

     total cpu time spent up to now is      678.5 secs

     End of self-consistent calculation

          k = 0.0000 0.0000 0.0000 (448403 PWs)   bands (ev):

    -9.9529  -9.4484  -9.4331  -9.4327  -9.4251  -9.4247  -9.1436  -8.4037
    -8.4035  -8.3842  -8.3842  -8.3822  -8.3046  -8.2542  -8.2540  -7.5848
    -6.9320  -6.9318  -6.8226  -6.4818  -6.4772  -6.4770  -6.3719  -6.3717
    -5.4690  -4.8394  -4.8391  -4.8347  -4.7361  -4.7359  -4.4762  -4.4669
    -4.4427  -4.4427  -4.1248  -4.1245  -3.9777  -3.4711  -3.4674  -3.4671
    -3.4580  -3.4577  -3.3996  -3.2729  -3.2726  -3.2209  -3.2174  -2.9698
    -2.9631  -2.9631  -2.9407  -2.5168  -2.5165  -2.4462  -2.4445  -2.4332

     the Fermi energy is    -3.0904 ev

!    total energy              =    -140.93711799 Ry
     Harris-Foulkes estimate   =    -140.93711827 Ry
     estimated scf accuracy    <       0.00000084 Ry

     The total energy is the sum of the following terms:

     one-electron contribution =    -502.12232315 Ry
     hartree contribution      =     259.80425198 Ry
     xc contribution           =     -61.33342529 Ry
     ewald contribution        =     162.79501641 Ry
     smearing contrib. (-TS)   =      -0.08063793 Ry

     convergence has been achieved in   6 iterations

     negative rho (up, down):  8.589E-05 0.000E+00

     Forces acting on atoms (cartesian axes, Ry/au):

     atom    1 type  1   force =    -0.00077751    0.00040167    0.00000000
     atom    2 type  1   force =     0.00089432   -0.00043475    0.00000000
     atom    3 type  1   force =    -0.01296694   -0.00743325    0.00000000
     atom    4 type  1   force =     0.00143170   -0.00154741    0.00000000
     atom    5 type  1   force =     0.00000000   -0.00095642    0.00000000
     atom    6 type  1   force =    -0.00068695    0.00197441    0.00000000
     atom    7 type  1   force =    -0.00062422   -0.00042800    0.00000000
     atom    8 type  1   force =    -0.00000000    0.00108655    0.00000000
     atom    9 type  1   force =    -0.00000000    0.00074845    0.00000000
     atom   10 type  1   force =    -0.00089432   -0.00043475    0.00000000
     atom   11 type  1   force =    -0.00331331   -0.00325861    0.00000000
     atom   12 type  1   force =    -0.00000000    0.00224367    0.00000000
     atom   13 type  1   force =    -0.00447597   -0.00115847    0.00000000
     atom   14 type  1   force =     0.00141296    0.00078743    0.00000000
     atom   15 type  1   force =     0.00062422   -0.00042800    0.00000000
     atom   16 type  1   force =     0.00201273   -0.00117980    0.00000000
     atom   17 type  1   force =     0.00077751    0.00040167    0.00000000
     atom   18 type  1   force =    -0.00209211   -0.00037594    0.00000000
     atom   19 type  1   force =     0.00331331   -0.00325861    0.00000000
     atom   20 type  1   force =    -0.00143170   -0.00154741    0.00000000
     atom   21 type  1   force =    -0.00000000    0.00000545    0.00000000
     atom   22 type  1   force =    -0.00141296    0.00078743    0.00000000
     atom   23 type  1   force =    -0.00117223    0.00439944    0.00000000
     atom   24 type  1   force =     0.00000000   -0.00158339    0.00000000
     atom   25 type  1   force =    -0.00000000    0.01496222    0.00000000
     atom   26 type  1   force =     0.00209211   -0.00037594    0.00000000
     atom   27 type  1   force =     0.01296694   -0.00743325    0.00000000
     atom   28 type  1   force =     0.00447597   -0.00115847    0.00000000
     atom   29 type  1   force =     0.00068695    0.00197441    0.00000000
     atom   30 type  1   force =     0.00117223    0.00439944    0.00000000
     atom   31 type  1   force =    -0.00201273   -0.00117980    0.00000000

     Total force =     0.029252     Total SCF correction =     0.000519


     Computing stress (Cartesian axis) and pressure


     negative rho (up, down):  8.589E-05 0.000E+00
          total   stress  (Ry/bohr**3)                   (kbar)     P=   -0.58
  -0.00000596  -0.00000000   0.00000000         -0.88     -0.00      0.00
  -0.00000000  -0.00000588   0.00000000         -0.00     -0.87      0.00
   0.00000000  -0.00000000  -0.00000005          0.00     -0.00     -0.01


     number of scf cycles    =   2
     number of bfgs steps    =   1

     enthalpy old            =    -140.9361191607 Ry
     enthalpy new            =    -140.9371179919 Ry

     CASE: enthalpy_new < enthalpy_old


     WARNING: bfgs curvature condition failed, Theta= 0.853
     new trust radius        =       0.0227199915 bohr
     new conv_thr            =       0.0000009988 Ry

     new unit-cell volume =  37103.12178 a.u.^3 (  5498.11532 Ang^3 )
     density =      0.28071 g/cm^3

CELL_PARAMETERS (alat= 33.68096681)
   0.999631743  -0.000000000   0.000000000
  -0.499815872   0.865710031   0.000000000
   0.000000000   0.000000000   1.122132950

ATOMIC_POSITIONS (angstrom)
Al      -0.001270207   2.572324346   0.000000000
Al       2.228458620   1.285145906   0.000000000
Al      -2.244417217   6.419164163   0.000000000
Al       0.002895403   5.140738794   0.000000000
Al      -4.454148996  10.285005892   0.000000000
Al      -2.227916478   9.004438965   0.000000000
Al      -6.681876449  14.143559718   0.000000000
Al      -4.454116323  12.859836619   0.000000000
Al       4.454179326   2.572478119   0.000000000
Al       6.679933877   1.285164095   0.000000000
Al       2.222349758   6.424181441   0.000000000
Al       4.454211999   5.146330906   0.000000000
Al      -0.006618386  10.285052315   0.000000000
Al       2.229416648   9.002041698   0.000000000
Al      -2.226390042  14.143577907   0.000000000
Al       0.002775199  12.856615724   0.000000000
Al       8.909628859   2.572360725   0.000000000
Al      11.131761649   1.284770692   0.000000000
Al       6.686040396   6.424199630   0.000000000
Al       8.905528595   5.140775173   0.000000000
Al       4.454210827  10.286604789   0.000000000
Al       6.679038851   9.002059887   0.000000000
Al       2.225224558  14.150518720   0.000000000
Al       4.454243500  12.855664908   0.000000000
Al      13.362539149   2.591739355   0.000000000
Al      15.593350495   1.284788881   0.000000000
Al      11.152807370   6.419218731   0.000000000
Al       8.915040041  10.285088693   0.000000000
Al      11.136371977   9.004493533   0.000000000
Al       6.683228598  14.150536909   0.000000000
Al       8.905711802  12.856652103   0.000000000



     Writing output data file 28al_planar_2x2_vcr.save/
     NEW-OLD atomic charge density approx. for the potential

     negative rho (up, down):  8.591E-05 0.000E+00
     extrapolated charge   92.95878, renormalised to   93.00000

     total cpu time spent up to now is      755.3 secs

     Self-consistent Calculation

     iteration #  1     ecut=    80.00 Ry     beta= 0.40
     Davidson diagonalization with overlap
     ethr =  1.00E-06,  avg # of iterations =  4.0

     negative rho (up, down):  8.607E-05 0.000E+00

     total cpu time spent up to now is      786.7 secs

     total energy              =    -140.93841406 Ry
     Harris-Foulkes estimate   =    -141.14251152 Ry
     estimated scf accuracy    <       0.00011890 Ry

     iteration #  2     ecut=    80.00 Ry     beta= 0.40
     Davidson diagonalization with overlap
     ethr =  1.28E-07,  avg # of iterations =  6.0

     negative rho (up, down):  8.603E-05 0.000E+00

     total cpu time spent up to now is      816.5 secs

     total energy              =    -140.93839307 Ry
     Harris-Foulkes estimate   =    -140.93857746 Ry
     estimated scf accuracy    <       0.00139621 Ry

     iteration #  3     ecut=    80.00 Ry     beta= 0.40
     Davidson diagonalization with overlap
     ethr =  1.28E-07,  avg # of iterations =  4.0

     negative rho (up, down):  8.601E-05 0.000E+00

     total cpu time spent up to now is      841.3 secs

     total energy              =    -140.93847929 Ry
     Harris-Foulkes estimate   =    -140.93848802 Ry
     estimated scf accuracy    <       0.00003623 Ry

     iteration #  4     ecut=    80.00 Ry     beta= 0.40
     Davidson diagonalization with overlap
     ethr =  3.90E-08,  avg # of iterations =  3.0

     negative rho (up, down):  8.594E-05 0.000E+00

     total cpu time spent up to now is      861.2 secs

     total energy              =    -140.93848114 Ry
     Harris-Foulkes estimate   =    -140.93848445 Ry
     estimated scf accuracy    <       0.00001388 Ry

     iteration #  5     ecut=    80.00 Ry     beta= 0.40
     Davidson diagonalization with overlap
     ethr =  1.49E-08,  avg # of iterations =  4.0

     negative rho (up, down):  8.589E-05 0.000E+00

     total cpu time spent up to now is      884.1 secs

     total energy              =    -140.93848041 Ry
     Harris-Foulkes estimate   =    -140.93848605 Ry
     estimated scf accuracy    <       0.00003629 Ry

     iteration #  6     ecut=    80.00 Ry     beta= 0.40
     Davidson diagonalization with overlap
     ethr =  1.49E-08,  avg # of iterations =  3.0

     negative rho (up, down):  8.584E-05 0.000E+00

     total cpu time spent up to now is      910.3 secs

     total energy              =    -140.93848347 Ry
     Harris-Foulkes estimate   =    -140.93848379 Ry
     estimated scf accuracy    <       0.00000281 Ry

     iteration #  7     ecut=    80.00 Ry     beta= 0.40
     Davidson diagonalization with overlap
     ethr =  3.02E-09,  avg # of iterations =  4.0

     negative rho (up, down):  8.584E-05 0.000E+00

     total cpu time spent up to now is      933.4 secs

     total energy              =    -140.93848360 Ry
     Harris-Foulkes estimate   =    -140.93848416 Ry
     estimated scf accuracy    <       0.00000334 Ry

     iteration #  8     ecut=    80.00 Ry     beta= 0.40
     Davidson diagonalization with overlap
     ethr =  3.02E-09,  avg # of iterations =  1.0

     negative rho (up, down):  8.584E-05 0.000E+00

     total cpu time spent up to now is      952.9 secs

     End of self-consistent calculation

          k = 0.0000 0.0000 0.0000 (448403 PWs)   bands (ev):

    -9.9541  -9.4493  -9.4356  -9.4353  -9.4239  -9.4237  -9.1415  -8.4034
    -8.4032  -8.3871  -8.3800  -8.3800  -8.3071  -8.2509  -8.2508  -7.5836
    -6.9324  -6.9324  -6.8227  -6.4781  -6.4779  -6.4766  -6.3751  -6.3749
    -5.4773  -4.8345  -4.8344  -4.8327  -4.7375  -4.7373  -4.4748  -4.4663
    -4.4436  -4.4436  -4.1292  -4.1290  -3.9783  -3.4714  -3.4669  -3.4665
    -3.4589  -3.4585  -3.3976  -3.2716  -3.2712  -3.2326  -3.2196  -2.9652
    -2.9611  -2.9610  -2.9437  -2.5135  -2.5132  -2.4419  -2.4409  -2.4367

     the Fermi energy is    -3.0906 ev

!    total energy              =    -140.93848371 Ry
     Harris-Foulkes estimate   =    -140.93848395 Ry
     estimated scf accuracy    <       0.00000040 Ry

     The total energy is the sum of the following terms:

     one-electron contribution =    -502.26172274 Ry
     hartree contribution      =     259.87551534 Ry
     xc contribution           =     -61.33162945 Ry
     ewald contribution        =     162.85950473 Ry
     smearing contrib. (-TS)   =      -0.08015158 Ry

     convergence has been achieved in   8 iterations

     negative rho (up, down):  8.584E-05 0.000E+00

     Forces acting on atoms (cartesian axes, Ry/au):

     atom    1 type  1   force =    -0.00037777    0.00020351    0.00000000
     atom    2 type  1   force =     0.00061786   -0.00028397    0.00000000
     atom    3 type  1   force =    -0.01281161   -0.00736086    0.00000000
     atom    4 type  1   force =    -0.00018366   -0.00076629    0.00000000
     atom    5 type  1   force =    -0.00000000   -0.00046907    0.00000000
     atom    6 type  1   force =    -0.00079179    0.00017265    0.00000000
     atom    7 type  1   force =    -0.00088148   -0.00056193    0.00000000
     atom    8 type  1   force =     0.00000000    0.00073665    0.00000000
     atom    9 type  1   force =     0.00000000    0.00103479    0.00000000
     atom   10 type  1   force =    -0.00061786   -0.00028397    0.00000000
     atom   11 type  1   force =    -0.00268310   -0.00229377    0.00000000
     atom   12 type  1   force =     0.00000000    0.00220423    0.00000000
     atom   13 type  1   force =    -0.00332573   -0.00111856    0.00000000
     atom   14 type  1   force =     0.00076240    0.00040140    0.00000000
     atom   15 type  1   force =     0.00088148   -0.00056193    0.00000000
     atom   16 type  1   force =     0.00195960   -0.00112443    0.00000000
     atom   17 type  1   force =     0.00037777    0.00020351    0.00000000
     atom   18 type  1   force =    -0.00062015    0.00059473    0.00000000
     atom   19 type  1   force =     0.00268310   -0.00229377    0.00000000
     atom   20 type  1   force =     0.00018366   -0.00076629    0.00000000
     atom   21 type  1   force =     0.00000000    0.00002168    0.00000000
     atom   22 type  1   force =    -0.00076240    0.00040140    0.00000000
     atom   23 type  1   force =    -0.00065272    0.00338687    0.00000000
     atom   24 type  1   force =    -0.00000000   -0.00084746    0.00000000
     atom   25 type  1   force =     0.00000000    0.01482048    0.00000000
     atom   26 type  1   force =     0.00062015    0.00059473    0.00000000
     atom   27 type  1   force =     0.01281161   -0.00736086    0.00000000
     atom   28 type  1   force =     0.00332573   -0.00111856    0.00000000
     atom   29 type  1   force =     0.00079179    0.00017265    0.00000000
     atom   30 type  1   force =     0.00065272    0.00338687    0.00000000
     atom   31 type  1   force =    -0.00195960   -0.00112443    0.00000000

     Total force =     0.027500     Total SCF correction =     0.000417


     Computing stress (Cartesian axis) and pressure


     negative rho (up, down):  8.584E-05 0.000E+00
          total   stress  (Ry/bohr**3)                   (kbar)     P=   -0.60
  -0.00000612  -0.00000000   0.00000000         -0.90     -0.00      0.00
  -0.00000000  -0.00000606   0.00000000         -0.00     -0.89      0.00
   0.00000000   0.00000000   0.00000003          0.00      0.00      0.00


     number of scf cycles    =   3
     number of bfgs steps    =   2

     enthalpy old            =    -140.9371179919 Ry
     enthalpy new            =    -140.9384837059 Ry

     CASE: enthalpy_new < enthalpy_old

     new trust radius        =       0.0340724769 bohr
     new conv_thr            =       0.0000010000 Ry

     new unit-cell volume =  37077.96359 a.u.^3 (  5494.38726 Ang^3 )
     density =      0.28090 g/cm^3

CELL_PARAMETERS (alat= 33.68096681)
   0.999291087  -0.000000000   0.000000000
  -0.499645544   0.865417945   0.000000000
   0.000000000   0.000000000   1.122132950

ATOMIC_POSITIONS (angstrom)
Al      -0.002089698   2.571896970   0.000000000
Al       2.228696028   1.284224708   0.000000000
Al      -2.259238201   6.408050446   0.000000000
Al       0.004151274   5.137351567   0.000000000
Al      -4.452631104  10.280524838   0.000000000
Al      -2.228030494   9.003259378   0.000000000
Al      -6.680410659  14.138249159   0.000000000
Al      -4.452598442  12.856696202   0.000000000
Al       4.452661423   2.572584605   0.000000000
Al       6.676660651   1.284242891   0.000000000
Al       2.217798511   6.418341331   0.000000000
Al       4.452694085   5.147301783   0.000000000
Al      -0.011685610  10.280218184   0.000000000
Al       2.230179749   8.999845581   0.000000000
Al      -2.224820057  14.138267342   0.000000000
Al       0.005186679  12.850872721   0.000000000
Al       8.907412544   2.571933337   0.000000000
Al      11.125842643   1.284156449   0.000000000
Al       6.687555826   6.418359514   0.000000000
Al       8.901236895   5.137387933   0.000000000
Al       4.452692914  10.283148050   0.000000000
Al       6.675239911   8.999863764   0.000000000
Al       2.223175290  14.150756422   0.000000000
Al       4.452725576  12.849615024   0.000000000
Al      13.357985440   2.608889211   0.000000000
Al      15.590162071   1.284174633   0.000000000
Al      11.164592538   6.408104996   0.000000000
Al       8.917071438  10.280254551   0.000000000
Al      11.133450155   9.003313927   0.000000000
Al       6.682242028  14.150774605   0.000000000
Al       8.900264472  12.850909088   0.000000000



     Writing output data file 28al_planar_2x2_vcr.save/
     NEW-OLD atomic charge density approx. for the potential

     negative rho (up, down):  8.587E-05 0.000E+00
     extrapolated charge   92.93695, renormalised to   93.00000

     total cpu time spent up to now is     1026.6 secs

     Self-consistent Calculation

     iteration #  1     ecut=    80.00 Ry     beta= 0.40
     Davidson diagonalization with overlap
     ethr =  1.00E-06,  avg # of iterations =  5.0

     negative rho (up, down):  8.614E-05 0.000E+00

     total cpu time spent up to now is     1061.0 secs

     total energy              =    -140.94024162 Ry
     Harris-Foulkes estimate   =    -141.25258099 Ry
     estimated scf accuracy    <       0.00018452 Ry

     iteration #  2     ecut=    80.00 Ry     beta= 0.40
     Davidson diagonalization with overlap
     ethr =  1.98E-07,  avg # of iterations =  5.0

     negative rho (up, down):  8.607E-05 0.000E+00

     total cpu time spent up to now is     1091.5 secs

     total energy              =    -140.94023092 Ry
     Harris-Foulkes estimate   =    -140.94047241 Ry
     estimated scf accuracy    <       0.00177712 Ry

     iteration #  3     ecut=    80.00 Ry     beta= 0.40
     Davidson diagonalization with overlap
     ethr =  1.98E-07,  avg # of iterations =  4.0

     negative rho (up, down):  8.602E-05 0.000E+00

     total cpu time spent up to now is     1116.0 secs

     total energy              =    -140.94034577 Ry
     Harris-Foulkes estimate   =    -140.94036011 Ry
     estimated scf accuracy    <       0.00007128 Ry

     iteration #  4     ecut=    80.00 Ry     beta= 0.40
     Davidson diagonalization with overlap
     ethr =  7.66E-08,  avg # of iterations =  1.0

     negative rho (up, down):  8.596E-05 0.000E+00

     total cpu time spent up to now is     1134.0 secs

     total energy              =    -140.94034744 Ry
     Harris-Foulkes estimate   =    -140.94035161 Ry
     estimated scf accuracy    <       0.00001677 Ry

     iteration #  5     ecut=    80.00 Ry     beta= 0.40
     Davidson diagonalization with overlap
     ethr =  1.80E-08,  avg # of iterations =  5.0

     negative rho (up, down):  8.590E-05 0.000E+00

     total cpu time spent up to now is     1157.3 secs

     total energy              =    -140.94034330 Ry
     Harris-Foulkes estimate   =    -140.94035670 Ry
     estimated scf accuracy    <       0.00009029 Ry

     iteration #  6     ecut=    80.00 Ry     beta= 0.40
     Davidson diagonalization with overlap
     ethr =  1.80E-08,  avg # of iterations =  4.0

     negative rho (up, down):  8.585E-05 0.000E+00

     total cpu time spent up to now is     1180.8 secs

     total energy              =    -140.94035041 Ry
     Harris-Foulkes estimate   =    -140.94035145 Ry
     estimated scf accuracy    <       0.00000863 Ry

     iteration #  7     ecut=    80.00 Ry     beta= 0.40
     Davidson diagonalization with overlap
     ethr =  9.28E-09,  avg # of iterations =  1.0

     negative rho (up, down):  8.582E-05 0.000E+00

     total cpu time spent up to now is     1199.4 secs

     total energy              =    -140.94035088 Ry
     Harris-Foulkes estimate   =    -140.94035107 Ry
     estimated scf accuracy    <       0.00000159 Ry

     iteration #  8     ecut=    80.00 Ry     beta= 0.40
     Davidson diagonalization with overlap
     ethr =  1.71E-09,  avg # of iterations =  5.0

     negative rho (up, down):  8.579E-05 0.000E+00

     total cpu time spent up to now is     1225.2 secs

     total energy              =    -140.94035101 Ry
     Harris-Foulkes estimate   =    -140.94035136 Ry
     estimated scf accuracy    <       0.00000233 Ry

     iteration #  9     ecut=    80.00 Ry     beta= 0.40
     Davidson diagonalization with overlap
     ethr =  1.71E-09,  avg # of iterations =  3.0

     negative rho (up, down):  8.575E-05 0.000E+00

     total cpu time spent up to now is     1246.2 secs

     End of self-consistent calculation

          k = 0.0000 0.0000 0.0000 (448403 PWs)   bands (ev):

    -9.9551  -9.4500  -9.4388  -9.4385  -9.4211  -9.4208  -9.1383  -8.4024
    -8.4023  -8.3923  -8.3743  -8.3742  -8.3098  -8.2450  -8.2449  -7.5818
    -6.9325  -6.9325  -6.8227  -6.4782  -6.4779  -6.4691  -6.3782  -6.3780
    -5.4886  -4.8291  -4.8274  -4.8272  -4.7381  -4.7379  -4.4720  -4.4643
    -4.4443  -4.4442  -4.1351  -4.1348  -3.9786  -3.4714  -3.4670  -3.4667
    -3.4580  -3.4577  -3.3937  -3.2687  -3.2684  -3.2554  -3.2178  -2.9600
    -2.9573  -2.9572  -2.9440  -2.5081  -2.5078  -2.4403  -2.4358  -2.4358

     the Fermi energy is    -3.0901 ev

!    total energy              =    -140.94035086 Ry
     Harris-Foulkes estimate   =    -140.94035120 Ry
     estimated scf accuracy    <       0.00000046 Ry

     The total energy is the sum of the following terms:

     one-electron contribution =    -502.47015809 Ry
     hartree contribution      =     259.97842347 Ry
     xc contribution           =     -61.32823371 Ry
     ewald contribution        =     162.95893319 Ry
     smearing contrib. (-TS)   =      -0.07931572 Ry

     convergence has been achieved in   9 iterations

     negative rho (up, down):  8.575E-05 0.000E+00

     Forces acting on atoms (cartesian axes, Ry/au):

     atom    1 type  1   force =     0.00009736   -0.00005283    0.00000000
     atom    2 type  1   force =     0.00028669   -0.00012162    0.00000000
     atom    3 type  1   force =    -0.01276200   -0.00734137    0.00000000
     atom    4 type  1   force =    -0.00225314    0.00026765    0.00000000
     atom    5 type  1   force =     0.00000000    0.00008413    0.00000000
     atom    6 type  1   force =    -0.00089657   -0.00209693    0.00000000
     atom    7 type  1   force =    -0.00122785   -0.00073127    0.00000000
     atom    8 type  1   force =     0.00000000    0.00032140    0.00000000
     atom    9 type  1   force =     0.00000000    0.00140189    0.00000000
     atom   10 type  1   force =    -0.00028669   -0.00012162    0.00000000
     atom   11 type  1   force =    -0.00188557   -0.00109195    0.00000000
     atom   12 type  1   force =     0.00000000    0.00216003    0.00000000
     atom   13 type  1   force =    -0.00192714   -0.00105828    0.00000000
     atom   14 type  1   force =    -0.00002983   -0.00004655    0.00000000
     atom   15 type  1   force =     0.00122785   -0.00073127    0.00000000
     atom   16 type  1   force =     0.00190020   -0.00108959    0.00000000
     atom   17 type  1   force =    -0.00009736   -0.00005283    0.00000000
     atom   18 type  1   force =     0.00133339    0.00181408    0.00000000
     atom   19 type  1   force =     0.00188557   -0.00109195    0.00000000
     atom   20 type  1   force =     0.00225314    0.00026765    0.00000000
     atom   21 type  1   force =     0.00000000    0.00000938    0.00000000
     atom   22 type  1   force =     0.00002983   -0.00004655    0.00000000
     atom   23 type  1   force =    -0.00003484    0.00215488    0.00000000
     atom   24 type  1   force =     0.00000000    0.00005055    0.00000000
     atom   25 type  1   force =     0.00000000    0.01476014    0.00000000
     atom   26 type  1   force =    -0.00133339    0.00181408    0.00000000
     atom   27 type  1   force =     0.01276200   -0.00734137    0.00000000
     atom   28 type  1   force =     0.00192714   -0.00105828    0.00000000
     atom   29 type  1   force =     0.00089657   -0.00209693    0.00000000
     atom   30 type  1   force =     0.00003484    0.00215488    0.00000000
     atom   31 type  1   force =    -0.00190020   -0.00108959    0.00000000

     Total force =     0.027043     Total SCF correction =     0.000498


     Computing stress (Cartesian axis) and pressure


     negative rho (up, down):  8.575E-05 0.000E+00
          total   stress  (Ry/bohr**3)                   (kbar)     P=   -0.62
  -0.00000637  -0.00000000   0.00000000         -0.94     -0.00      0.00
  -0.00000000  -0.00000631   0.00000000         -0.00     -0.93      0.00
   0.00000000   0.00000000   0.00000003          0.00      0.00      0.00


     number of scf cycles    =   4
     number of bfgs steps    =   3

     enthalpy old            =    -140.9384837059 Ry
     enthalpy new            =    -140.9403508603 Ry

     CASE: enthalpy_new < enthalpy_old

     new trust radius        =       0.0510914716 bohr
     new conv_thr            =       0.0000010000 Ry

     new unit-cell volume =  37039.77014 a.u.^3 (  5488.72758 Ang^3 )
     density =      0.28119 g/cm^3

CELL_PARAMETERS (alat= 33.68096681)
   0.998773721  -0.000000000   0.000000000
  -0.499386861   0.864974317   0.000000000
   0.000000000   0.000000000   1.122132950

ATOMIC_POSITIONS (angstrom)
Al      -0.003076083   2.571107391   0.000000000
Al       2.228867894   1.282914036   0.000000000
Al      -2.281439341   6.391344062   0.000000000
Al       0.004956116   5.132780739   0.000000000
Al      -4.450325829  10.274016389   0.000000000
Al      -2.228238994   9.000255106   0.000000000
Al      -6.678349220  14.130108434   0.000000000
Al      -4.450293185  12.851690091   0.000000000
Al       4.450356133   2.572916876   0.000000000
Al       6.671878188   1.282932210   0.000000000
Al       2.211376965   6.410160483   0.000000000
Al       4.450388778   5.148703308   0.000000000
Al      -0.018566195  10.272938581   0.000000000
Al       2.230903675   8.996267735   0.000000000
Al      -2.222270965  14.130126608   0.000000000
Al       0.008772566  12.842190565   0.000000000
Al       8.903788350   2.571143739   0.000000000
Al      11.117917749   1.283857235   0.000000000
Al       6.689366776   6.410178657   0.000000000
Al       8.895821440   5.132817087   0.000000000
Al       4.450387608  10.277886666   0.000000000
Al       6.669905356   8.996285909   0.000000000
Al       2.220398697  14.150387528   0.000000000
Al       4.450420253  12.840918393   0.000000000
Al      13.351069570   2.634574432   0.000000000
Al      15.584255207   1.283875409   0.000000000
Al      11.182183082   6.391398584   0.000000000
Al       8.919341410  10.272974929   0.000000000
Al      11.129048025   9.000309627   0.000000000
Al       6.680407992  14.150405702   0.000000000
Al       8.892067939  12.842226912   0.000000000



     Writing output data file 28al_planar_2x2_vcr.save/
     NEW-OLD atomic charge density approx. for the potential

     negative rho (up, down):  8.580E-05 0.000E+00
     extrapolated charge   92.90418, renormalised to   93.00000

     total cpu time spent up to now is     1321.1 secs

     Self-consistent Calculation

     iteration #  1     ecut=    80.00 Ry     beta= 0.40
     Davidson diagonalization with overlap
     ethr =  1.00E-06,  avg # of iterations =  6.0

     negative rho (up, down):  8.620E-05 0.000E+00

     total cpu time spent up to now is     1358.5 secs

     total energy              =    -140.94273897 Ry
     Harris-Foulkes estimate   =    -141.41774446 Ry
     estimated scf accuracy    <       0.00035953 Ry

     iteration #  2     ecut=    80.00 Ry     beta= 0.40
     Davidson diagonalization with overlap
     ethr =  3.87E-07,  avg # of iterations =  5.0

     negative rho (up, down):  8.609E-05 0.000E+00

     total cpu time spent up to now is     1389.0 secs

     total energy              =    -140.94274599 Ry
     Harris-Foulkes estimate   =    -140.94321495 Ry
     estimated scf accuracy    <       0.00353589 Ry

     iteration #  3     ecut=    80.00 Ry     beta= 0.40
     Davidson diagonalization with overlap
     ethr =  3.87E-07,  avg # of iterations =  6.0

     negative rho (up, down):  8.596E-05 0.000E+00

     total cpu time spent up to now is     1414.3 secs

     total energy              =    -140.94295725 Ry
     Harris-Foulkes estimate   =    -140.94297720 Ry
     estimated scf accuracy    <       0.00009371 Ry

     iteration #  4     ecut=    80.00 Ry     beta= 0.40
     Davidson diagonalization with overlap
     ethr =  1.01E-07,  avg # of iterations =  2.0

     negative rho (up, down):  8.577E-05 0.000E+00

     total cpu time spent up to now is     1435.1 secs

     total energy              =    -140.94295548 Ry
     Harris-Foulkes estimate   =    -140.94296474 Ry
     estimated scf accuracy    <       0.00004381 Ry

     iteration #  5     ecut=    80.00 Ry     beta= 0.40
     Davidson diagonalization with overlap
     ethr =  4.71E-08,  avg # of iterations =  5.0

     negative rho (up, down):  8.566E-05 0.000E+00

     total cpu time spent up to now is     1458.2 secs

     total energy              =    -140.94294596 Ry
     Harris-Foulkes estimate   =    -140.94297463 Ry
     estimated scf accuracy    <       0.00019861 Ry

     iteration #  6     ecut=    80.00 Ry     beta= 0.40
     Davidson diagonalization with overlap
     ethr =  4.71E-08,  avg # of iterations =  4.0

     negative rho (up, down):  8.561E-05 0.000E+00

     total cpu time spent up to now is     1480.8 secs

     total energy              =    -140.94296064 Ry
     Harris-Foulkes estimate   =    -140.94296199 Ry
     estimated scf accuracy    <       0.00000866 Ry

     iteration #  7     ecut=    80.00 Ry     beta= 0.40
     Davidson diagonalization with overlap
     ethr =  9.31E-09,  avg # of iterations =  4.0

     negative rho (up, down):  8.560E-05 0.000E+00

     total cpu time spent up to now is     1501.8 secs

     total energy              =    -140.94296110 Ry
     Harris-Foulkes estimate   =    -140.94296229 Ry
     estimated scf accuracy    <       0.00000781 Ry

     iteration #  8     ecut=    80.00 Ry     beta= 0.40
     Davidson diagonalization with overlap
     ethr =  8.40E-09,  avg # of iterations =  1.0

     negative rho (up, down):  8.559E-05 0.000E+00

     total cpu time spent up to now is     1520.9 secs

     total energy              =    -140.94296156 Ry
     Harris-Foulkes estimate   =    -140.94296177 Ry
     estimated scf accuracy    <       0.00000122 Ry

     iteration #  9     ecut=    80.00 Ry     beta= 0.40
     Davidson diagonalization with overlap
     ethr =  1.32E-09,  avg # of iterations =  5.0

     negative rho (up, down):  8.557E-05 0.000E+00

     total cpu time spent up to now is     1546.8 secs

     total energy              =    -140.94296135 Ry
     Harris-Foulkes estimate   =    -140.94296147 Ry
     estimated scf accuracy    <       0.00000144 Ry

     iteration # 10     ecut=    80.00 Ry     beta= 0.40
     Davidson diagonalization with overlap
     ethr =  1.32E-09,  avg # of iterations =  1.0

     negative rho (up, down):  8.557E-05 0.000E+00

     total cpu time spent up to now is     1566.7 secs

     End of self-consistent calculation

          k = 0.0000 0.0000 0.0000 (448403 PWs)   bands (ev):

    -9.9568  -9.4516  -9.4435  -9.4433  -9.4166  -9.4164  -9.1344  -8.4018
    -8.4015  -8.3982  -8.3677  -8.3675  -8.3133  -8.2353  -8.2352  -7.5795
    -6.9331  -6.9329  -6.8232  -6.4779  -6.4775  -6.4585  -6.3818  -6.3814
    -5.5050  -4.8243  -4.8179  -4.8178  -4.7377  -4.7375  -4.4686  -4.4617
    -4.4449  -4.4449  -4.1433  -4.1430  -3.9793  -3.4718  -3.4686  -3.4683
    -3.4550  -3.4548  -3.3877  -3.2895  -3.2647  -3.2644  -3.2156  -2.9601
    -2.9515  -2.9514  -2.9354  -2.5010  -2.5007  -2.4444  -2.4306  -2.4278

     the Fermi energy is    -3.0893 ev

!    total energy              =    -140.94296067 Ry
     Harris-Foulkes estimate   =    -140.94296124 Ry
     estimated scf accuracy    <       0.00000064 Ry

     The total energy is the sum of the following terms:

     one-electron contribution =    -502.78909264 Ry
     hartree contribution      =     260.13557059 Ry
     xc contribution           =     -61.32348475 Ry
     ewald contribution        =     163.11198247 Ry
     smearing contrib. (-TS)   =      -0.07793635 Ry

     convergence has been achieved in  10 iterations

     negative rho (up, down):  8.557E-05 0.000E+00

     Forces acting on atoms (cartesian axes, Ry/au):

     atom    1 type  1   force =     0.00073805   -0.00039493    0.00000000
     atom    2 type  1   force =    -0.00011322    0.00011040    0.00000000
     atom    3 type  1   force =    -0.01283284   -0.00739908    0.00000000
     atom    4 type  1   force =    -0.00501521    0.00168435    0.00000000
     atom    5 type  1   force =     0.00000000    0.00081885    0.00000000
     atom    6 type  1   force =    -0.00101419   -0.00520199    0.00000000
     atom    7 type  1   force =    -0.00164078   -0.00094087    0.00000000
     atom    8 type  1   force =    -0.00000000   -0.00014999    0.00000000
     atom    9 type  1   force =     0.00000000    0.00189384    0.00000000
     atom   10 type  1   force =     0.00011322    0.00011040    0.00000000
     atom   11 type  1   force =    -0.00081583    0.00040869    0.00000000
     atom   12 type  1   force =     0.00000000    0.00206241    0.00000000
     atom   13 type  1   force =    -0.00007590   -0.00090850    0.00000000
     atom   14 type  1   force =    -0.00104912   -0.00062017    0.00000000
     atom   15 type  1   force =     0.00164078   -0.00094087    0.00000000
     atom   16 type  1   force =     0.00184555   -0.00104777    0.00000000
     atom   17 type  1   force =    -0.00073805   -0.00039493    0.00000000
     atom   18 type  1   force =     0.00396732    0.00346123    0.00000000
     atom   19 type  1   force =     0.00081583    0.00040869    0.00000000
     atom   20 type  1   force =     0.00501521    0.00168435    0.00000000
     atom   21 type  1   force =     0.00000000    0.00001570    0.00000000
     atom   22 type  1   force =     0.00104912   -0.00062017    0.00000000
     atom   23 type  1   force =     0.00073219    0.00049801    0.00000000
     atom   24 type  1   force =     0.00000000    0.00119752    0.00000000
     atom   25 type  1   force =     0.00000000    0.01486292    0.00000000
     atom   26 type  1   force =    -0.00396732    0.00346123    0.00000000
     atom   27 type  1   force =     0.01283284   -0.00739908    0.00000000
     atom   28 type  1   force =     0.00007590   -0.00090850    0.00000000
     atom   29 type  1   force =     0.00101419   -0.00520199    0.00000000
     atom   30 type  1   force =    -0.00073219    0.00049801    0.00000000
     atom   31 type  1   force =    -0.00184555   -0.00104777    0.00000000

     Total force =     0.029374     Total SCF correction =     0.000700


     Computing stress (Cartesian axis) and pressure


     negative rho (up, down):  8.557E-05 0.000E+00
          total   stress  (Ry/bohr**3)                   (kbar)     P=   -0.65
  -0.00000672   0.00000000   0.00000000         -0.99      0.00      0.00
   0.00000000  -0.00000666   0.00000000          0.00     -0.98      0.00
  -0.00000000  -0.00000000   0.00000002         -0.00     -0.00      0.00


     number of scf cycles    =   5
     number of bfgs steps    =   4

     enthalpy old            =    -140.9403508603 Ry
     enthalpy new            =    -140.9429606659 Ry

     CASE: enthalpy_new < enthalpy_old

     new trust radius        =       0.0765979218 bohr
     new conv_thr            =       0.0000010000 Ry

     new unit-cell volume =  36982.13883 a.u.^3 (  5480.18750 Ang^3 )
     density =      0.28163 g/cm^3

CELL_PARAMETERS (alat= 33.68096681)
   0.997992650   0.000000000   0.000000000
  -0.498996325   0.864304389   0.000000000
   0.000000000   0.000000000   1.122132950

ATOMIC_POSITIONS (angstrom)
Al      -0.004282752   2.569763525   0.000000000
Al       2.228950439   1.281040741   0.000000000
Al      -2.314674567   6.366274956   0.000000000
Al       0.004988545   5.126521265   0.000000000
Al      -4.446845540  10.264506483   0.000000000
Al      -2.228574554   8.994366298   0.000000000
Al      -6.675378691  14.117747575   0.000000000
Al      -4.446812920  12.843927963   0.000000000
Al       4.446875820   2.573599010   0.000000000
Al       6.664834989   1.281058901   0.000000000
Al       2.202221035   6.398487458   0.000000000
Al       4.446908439   5.150707704   0.000000000
Al      -0.028078571  10.262062489   0.000000000
Al       2.231552311   8.990619121   0.000000000
Al      -2.218280938  14.117765735   0.000000000
Al       0.014113863  12.829124133   0.000000000
Al       8.898034392   2.569799845   0.000000000
Al      11.107115471   1.284096201   0.000000000
Al       6.691562054   6.398505618   0.000000000
Al       8.888828333   5.126557584   0.000000000
Al       4.446907269  10.269944055   0.000000000
Al       6.662296016   8.990637281   0.000000000
Al       2.216531293  14.149025887   0.000000000
Al       4.446939889  12.828283137   0.000000000
Al      13.340628629   2.673036419   0.000000000
Al      15.574175576   1.284114360   0.000000000
Al      11.208457656   6.366329436   0.000000000
Al       8.921893110  10.262098809   0.000000000
Al      11.122422881   8.994420777   0.000000000
Al       6.677314696  14.149044047   0.000000000
Al       8.879765914  12.829160452   0.000000000



     Writing output data file 28al_planar_2x2_vcr.save/
     NEW-OLD atomic charge density approx. for the potential

     negative rho (up, down):  8.566E-05 0.000E+00
     extrapolated charge   92.85519, renormalised to   93.00000

     total cpu time spent up to now is     1641.6 secs

     Self-consistent Calculation

     iteration #  1     ecut=    80.00 Ry     beta= 0.40
     Davidson diagonalization with overlap
     ethr =  1.00E-06,  avg # of iterations =  8.0

     negative rho (up, down):  8.630E-05 0.000E+00

     total cpu time spent up to now is     1682.2 secs

     total energy              =    -140.94624506 Ry
     Harris-Foulkes estimate   =    -141.66486450 Ry
     estimated scf accuracy    <       0.00068274 Ry

     iteration #  2     ecut=    80.00 Ry     beta= 0.40
     Davidson diagonalization with overlap
     ethr =  7.34E-07,  avg # of iterations = 18.0

     negative rho (up, down):  8.614E-05 0.000E+00

     total cpu time spent up to now is     1718.0 secs

     total energy              =    -140.94628525 Ry
     Harris-Foulkes estimate   =    -140.94701098 Ry
     estimated scf accuracy    <       0.00506023 Ry

     iteration #  3     ecut=    80.00 Ry     beta= 0.40
     Davidson diagonalization with overlap
     ethr =  7.34E-07,  avg # of iterations =  4.0

     negative rho (up, down):  8.595E-05 0.000E+00

     total cpu time spent up to now is     1741.2 secs

     total energy              =    -140.94660646 Ry
     Harris-Foulkes estimate   =    -140.94668406 Ry
     estimated scf accuracy    <       0.00037609 Ry

     iteration #  4     ecut=    80.00 Ry     beta= 0.40
     Davidson diagonalization with overlap
     ethr =  4.04E-07,  avg # of iterations =  1.0

     negative rho (up, down):  8.581E-05 0.000E+00

     total cpu time spent up to now is     1759.1 secs

     total energy              =    -140.94661723 Ry
     Harris-Foulkes estimate   =    -140.94664182 Ry
     estimated scf accuracy    <       0.00011712 Ry

     iteration #  5     ecut=    80.00 Ry     beta= 0.40
     Davidson diagonalization with overlap
     ethr =  1.26E-07,  avg # of iterations =  5.0

     negative rho (up, down):  8.565E-05 0.000E+00

     total cpu time spent up to now is     1781.0 secs

     total energy              =    -140.94660169 Ry
     Harris-Foulkes estimate   =    -140.94665928 Ry
     estimated scf accuracy    <       0.00038970 Ry

     iteration #  6     ecut=    80.00 Ry     beta= 0.40
     Davidson diagonalization with overlap
     ethr =  1.26E-07,  avg # of iterations =  4.0

     negative rho (up, down):  8.545E-05 0.000E+00

     total cpu time spent up to now is     1800.2 secs

     total energy              =    -140.94662845 Ry
     Harris-Foulkes estimate   =    -140.94663580 Ry
     estimated scf accuracy    <       0.00005119 Ry

     iteration #  7     ecut=    80.00 Ry     beta= 0.40
     Davidson diagonalization with overlap
     ethr =  5.50E-08,  avg # of iterations =  3.0

     negative rho (up, down):  8.542E-05 0.000E+00

     total cpu time spent up to now is     1818.6 secs

     total energy              =    -140.94663172 Ry
     Harris-Foulkes estimate   =    -140.94663430 Ry
     estimated scf accuracy    <       0.00001425 Ry

     iteration #  8     ecut=    80.00 Ry     beta= 0.40
     Davidson diagonalization with overlap
     ethr =  1.53E-08,  avg # of iterations =  4.0

     negative rho (up, down):  8.539E-05 0.000E+00

     total cpu time spent up to now is     1837.9 secs

     total energy              =    -140.94663349 Ry
     Harris-Foulkes estimate   =    -140.94663501 Ry
     estimated scf accuracy    <       0.00000997 Ry

     iteration #  9     ecut=    80.00 Ry     beta= 0.40
     Davidson diagonalization with overlap
     ethr =  1.07E-08,  avg # of iterations =  1.0

     negative rho (up, down):  8.535E-05 0.000E+00

     total cpu time spent up to now is     1855.1 secs

     total energy              =    -140.94663413 Ry
     Harris-Foulkes estimate   =    -140.94663448 Ry
     estimated scf accuracy    <       0.00000155 Ry

     iteration # 10     ecut=    80.00 Ry     beta= 0.40
     Davidson diagonalization with overlap
     ethr =  1.66E-09,  avg # of iterations =  6.0

     negative rho (up, down):  8.533E-05 0.000E+00

     total cpu time spent up to now is     1878.7 secs

     total energy              =    -140.94663410 Ry
     Harris-Foulkes estimate   =    -140.94663462 Ry
     estimated scf accuracy    <       0.00000416 Ry

     iteration # 11     ecut=    80.00 Ry     beta= 0.40
     Davidson diagonalization with overlap
     ethr =  1.66E-09,  avg # of iterations =  4.0

     negative rho (up, down):  8.532E-05 0.000E+00

     total cpu time spent up to now is     1897.9 secs

     total energy              =    -140.94663409 Ry
     Harris-Foulkes estimate   =    -140.94663434 Ry
     estimated scf accuracy    <       0.00000152 Ry

     iteration # 12     ecut=    80.00 Ry     beta= 0.40
     Davidson diagonalization with overlap
     ethr =  1.63E-09,  avg # of iterations =  3.0

     negative rho (up, down):  8.530E-05 0.000E+00

     total cpu time spent up to now is     1916.4 secs

     End of self-consistent calculation

          k = 0.0000 0.0000 0.0000 (448403 PWs)   bands (ev):

    -9.9598  -9.4532  -9.4520  -9.4499  -9.4120  -9.4108  -9.1300  -8.4070
    -8.4028  -8.4011  -8.3608  -8.3583  -8.3188  -8.2199  -8.2189  -7.5781
    -6.9345  -6.9338  -6.8253  -6.4780  -6.4763  -6.4447  -6.3861  -6.3853
    -5.5298  -4.8180  -4.8057  -4.8054  -4.7362  -4.7360  -4.4637  -4.4575
    -4.4467  -4.4462  -4.1566  -4.1561  -3.9804  -3.4734  -3.4719  -3.4709
    -3.4510  -3.4498  -3.3782  -3.3416  -3.2598  -3.2588  -3.2134  -2.9661
    -2.9432  -2.9425  -2.9168  -2.4915  -2.4904  -2.4504  -2.4413  -2.4181

     the Fermi energy is    -3.0886 ev

!    total energy              =    -140.94663412 Ry
     Harris-Foulkes estimate   =    -140.94663422 Ry
     estimated scf accuracy    <       0.00000015 Ry

     The total energy is the sum of the following terms:

     one-electron contribution =    -503.27517275 Ry
     hartree contribution      =     260.37339999 Ry
     xc contribution           =     -61.31704853 Ry
     ewald contribution        =     163.34811649 Ry
     smearing contrib. (-TS)   =      -0.07592932 Ry

     convergence has been achieved in  12 iterations

     negative rho (up, down):  8.530E-05 0.000E+00

     Forces acting on atoms (cartesian axes, Ry/au):

     atom    1 type  1   force =     0.00159331   -0.00066568    0.00000000
     atom    2 type  1   force =    -0.00048122    0.00032810    0.00000000
     atom    3 type  1   force =    -0.01309392   -0.00760484    0.00000000
     atom    4 type  1   force =    -0.00889361    0.00350020    0.00000000
     atom    5 type  1   force =    -0.00000000    0.00202146    0.00000000
     atom    6 type  1   force =    -0.00118858   -0.00935267    0.00000000
     atom    7 type  1   force =    -0.00197449   -0.00116592    0.00000000
     atom    8 type  1   force =     0.00000000   -0.00093660    0.00000000
     atom    9 type  1   force =    -0.00000000    0.00231132    0.00000000
     atom   10 type  1   force =     0.00048122    0.00032810    0.00000000
     atom   11 type  1   force =     0.00086190    0.00237299    0.00000000
     atom   12 type  1   force =    -0.00000000    0.00228287    0.00000000
     atom   13 type  1   force =     0.00235411   -0.00072311    0.00000000
     atom   14 type  1   force =    -0.00235386   -0.00135083    0.00000000
     atom   15 type  1   force =     0.00197449   -0.00116592    0.00000000
     atom   16 type  1   force =     0.00181764   -0.00109052    0.00000000
     atom   17 type  1   force =    -0.00159331   -0.00066568    0.00000000
     atom   18 type  1   force =     0.00781593    0.00566467    0.00000000
     atom   19 type  1   force =    -0.00086190    0.00237299    0.00000000
     atom   20 type  1   force =     0.00889361    0.00350020    0.00000000
     atom   21 type  1   force =    -0.00000000    0.00003398    0.00000000
     atom   22 type  1   force =     0.00235386   -0.00135083    0.00000000
     atom   23 type  1   force =     0.00188845   -0.00160593    0.00000000
     atom   24 type  1   force =    -0.00000000    0.00274888    0.00000000
     atom   25 type  1   force =    -0.00000000    0.01492517    0.00000000
     atom   26 type  1   force =    -0.00781593    0.00566467    0.00000000
     atom   27 type  1   force =     0.01309392   -0.00760484    0.00000000
     atom   28 type  1   force =    -0.00235411   -0.00072311    0.00000000
     atom   29 type  1   force =     0.00118858   -0.00935267    0.00000000
     atom   30 type  1   force =    -0.00188845   -0.00160593    0.00000000
     atom   31 type  1   force =    -0.00181764   -0.00109052    0.00000000

     Total force =     0.036459     Total SCF correction =     0.000286


     Computing stress (Cartesian axis) and pressure


     negative rho (up, down):  8.530E-05 0.000E+00
          total   stress  (Ry/bohr**3)                   (kbar)     P=   -0.70
  -0.00000714   0.00000000   0.00000000         -1.05      0.00      0.00
   0.00000000  -0.00000721   0.00000000          0.00     -1.06      0.00
   0.00000000   0.00000000   0.00000001          0.00      0.00      0.00


     number of scf cycles    =   6
     number of bfgs steps    =   5

     enthalpy old            =    -140.9429606659 Ry
     enthalpy new            =    -140.9466341182 Ry

     CASE: enthalpy_new < enthalpy_old

     new trust radius        =       0.1148078944 bohr
     new conv_thr            =       0.0000010000 Ry

     new unit-cell volume =  36895.26098 a.u.^3 (  5467.31353 Ang^3 )
     density =      0.28229 g/cm^3

CELL_PARAMETERS (alat= 33.68096681)
   0.996815967   0.000000000   0.000000000
  -0.498407984   0.863291843   0.000000000
   0.000000000   0.000000000   1.122132950

ATOMIC_POSITIONS (angstrom)
Al      -0.005808233   2.567691135   0.000000000
Al       2.228997790   1.278264498   0.000000000
Al      -2.364549672   6.328565715   0.000000000
Al       0.003691920   5.117689701   0.000000000
Al      -4.441602489  10.250610835   0.000000000
Al      -2.229111457   8.984057595   0.000000000
Al      -6.670909866  14.099037719   0.000000000
Al      -4.441569908  12.831877070   0.000000000
Al       4.441632734   2.574650575   0.000000000
Al       6.654301426   1.278282637   0.000000000
Al       2.189146934   6.381555196   0.000000000
Al       4.441665315   5.153814739   0.000000000
Al      -0.041527625  10.245751720   0.000000000
Al       2.232105858   8.981844298   0.000000000
Al      -2.212263700  14.099055858   0.000000000
Al       0.022113077  12.809373526   0.000000000
Al       8.889073701   2.567727412   0.000000000
Al      11.092257550   1.285168637   0.000000000
Al       6.694149946   6.381573335   0.000000000
Al       8.879638709   5.117725978   0.000000000
Al       4.441664146  10.257948346   0.000000000
Al       6.651256184   8.981862437   0.000000000
Al       2.211124028  14.146157153   0.000000000
Al       4.441696727  12.809725376   0.000000000
Al      13.324899369   2.730586975   0.000000000
Al      15.557574938   1.285186775   0.000000000
Al      11.247846552   6.328620131   0.000000000
Al       8.924855918  10.245787997   0.000000000
Al      11.112473499   8.984112011   0.000000000
Al       6.672235677  14.146175292   0.000000000
Al       8.861280378  12.809409803   0.000000000



     Writing output data file 28al_planar_2x2_vcr.save/
     NEW-OLD atomic charge density approx. for the potential

     negative rho (up, down):  8.545E-05 0.000E+00
     extrapolated charge   92.78119, renormalised to   93.00000

     total cpu time spent up to now is     1987.2 secs

     Self-consistent Calculation

     iteration #  1     ecut=    80.00 Ry     beta= 0.40
     Davidson diagonalization with overlap
     ethr =  1.00E-06,  avg # of iterations = 12.0

     negative rho (up, down):  8.641E-05 0.000E+00

     total cpu time spent up to now is     2028.5 secs

     total energy              =    -140.95064457 Ry
     Harris-Foulkes estimate   =    -142.03877270 Ry
     estimated scf accuracy    <       0.00207940 Ry

     iteration #  2     ecut=    80.00 Ry     beta= 0.40
     Davidson diagonalization with overlap
     ethr =  2.24E-06,  avg # of iterations =  7.0

     negative rho (up, down):  8.616E-05 0.000E+00

     total cpu time spent up to now is     2058.1 secs

     total energy              =    -140.95039007 Ry
     Harris-Foulkes estimate   =    -140.95403593 Ry
     estimated scf accuracy    <       0.02818564 Ry

     iteration #  3     ecut=    80.00 Ry     beta= 0.40
     Davidson diagonalization with overlap
     ethr =  2.24E-06,  avg # of iterations =  5.0

     negative rho (up, down):  8.588E-05 0.000E+00

     total cpu time spent up to now is     2082.1 secs

     total energy              =    -140.95200430 Ry
     Harris-Foulkes estimate   =    -140.95212809 Ry
     estimated scf accuracy    <       0.00056460 Ry

     iteration #  4     ecut=    80.00 Ry     beta= 0.40
     Davidson diagonalization with overlap
     ethr =  6.07E-07,  avg # of iterations =  4.0

     negative rho (up, down):  8.575E-05 0.000E+00

     total cpu time spent up to now is     2101.3 secs

     total energy              =    -140.95199730 Ry
     Harris-Foulkes estimate   =    -140.95206953 Ry
     estimated scf accuracy    <       0.00039545 Ry

     iteration #  5     ecut=    80.00 Ry     beta= 0.40
     Davidson diagonalization with overlap
     ethr =  4.25E-07,  avg # of iterations =  4.0

     negative rho (up, down):  8.541E-05 0.000E+00

     total cpu time spent up to now is     2121.3 secs

     total energy              =    -140.95198255 Ry
     Harris-Foulkes estimate   =    -140.95207805 Ry
     estimated scf accuracy    <       0.00060129 Ry

     iteration #  6     ecut=    80.00 Ry     beta= 0.40
     Davidson diagonalization with overlap
     ethr =  4.25E-07,  avg # of iterations =  4.0

     negative rho (up, down):  8.509E-05 0.000E+00

     total cpu time spent up to now is     2140.2 secs

     total energy              =    -140.95202203 Ry
     Harris-Foulkes estimate   =    -140.95203555 Ry
     estimated scf accuracy    <       0.00006299 Ry

     iteration #  7     ecut=    80.00 Ry     beta= 0.40
     Davidson diagonalization with overlap
     ethr =  6.77E-08,  avg # of iterations =  5.0

     negative rho (up, down):  8.505E-05 0.000E+00

     total cpu time spent up to now is     2162.6 secs

     total energy              =    -140.95203057 Ry
     Harris-Foulkes estimate   =    -140.95204086 Ry
     estimated scf accuracy    <       0.00006696 Ry

     iteration #  8     ecut=    80.00 Ry     beta= 0.40
     Davidson diagonalization with overlap
     ethr =  6.77E-08,  avg # of iterations =  2.0

     negative rho (up, down):  8.499E-05 0.000E+00

     total cpu time spent up to now is     2180.5 secs

     total energy              =    -140.95203504 Ry
     Harris-Foulkes estimate   =    -140.95203643 Ry
     estimated scf accuracy    <       0.00000722 Ry

     iteration #  9     ecut=    80.00 Ry     beta= 0.40
     Davidson diagonalization with overlap
     ethr =  7.76E-09,  avg # of iterations =  6.0

     negative rho (up, down):  8.492E-05 0.000E+00

     total cpu time spent up to now is     2202.7 secs

     total energy              =    -140.95203563 Ry
     Harris-Foulkes estimate   =    -140.95203627 Ry
     estimated scf accuracy    <       0.00000377 Ry

     iteration # 10     ecut=    80.00 Ry     beta= 0.40
     Davidson diagonalization with overlap
     ethr =  4.06E-09,  avg # of iterations =  4.0

     negative rho (up, down):  8.490E-05 0.000E+00

     total cpu time spent up to now is     2223.2 secs

     total energy              =    -140.95203512 Ry
     Harris-Foulkes estimate   =    -140.95203612 Ry
     estimated scf accuracy    <       0.00000543 Ry

     iteration # 11     ecut=    80.00 Ry     beta= 0.40
     Davidson diagonalization with overlap
     ethr =  4.06E-09,  avg # of iterations =  4.0

     negative rho (up, down):  8.490E-05 0.000E+00

     total cpu time spent up to now is     2241.6 secs

     total energy              =    -140.95203533 Ry
     Harris-Foulkes estimate   =    -140.95203557 Ry
     estimated scf accuracy    <       0.00000101 Ry

     iteration # 12     ecut=    80.00 Ry     beta= 0.40
     Davidson diagonalization with overlap
     ethr =  1.09E-09,  avg # of iterations =  5.0

     negative rho (up, down):  8.485E-05 0.000E+00

     total cpu time spent up to now is     2262.8 secs

     End of self-consistent calculation

          k = 0.0000 0.0000 0.0000 (448403 PWs)   bands (ev):

    -9.9640  -9.4618  -9.4599  -9.4559  -9.4048  -9.4040  -9.1252  -8.4184
    -8.4020  -8.4007  -8.3531  -8.3507  -8.3258  -8.1932  -8.1923  -7.5796
    -6.9365  -6.9356  -6.8283  -6.4763  -6.4744  -6.4245  -6.3900  -6.3893
    -5.5677  -4.8077  -4.7908  -4.7904  -4.7296  -4.7294  -4.4564  -4.4510
    -4.4482  -4.4477  -4.1758  -4.1753  -3.9819  -3.4783  -3.4763  -3.4716
    -3.4436  -3.4429  -3.4232  -3.3631  -3.2514  -3.2504  -3.2118  -2.9748
    -2.9301  -2.9295  -2.8850  -2.4771  -2.4759  -2.4576  -2.4385  -2.4055

     the Fermi energy is    -3.0865 ev

!    total energy              =    -140.95203486 Ry
     Harris-Foulkes estimate   =    -140.95203533 Ry
     estimated scf accuracy    <       0.00000058 Ry

     The total energy is the sum of the following terms:

     one-electron contribution =    -504.03477684 Ry
     hartree contribution      =     260.74682891 Ry
     xc contribution           =     -61.30957037 Ry
     ewald contribution        =     163.71731765 Ry
     smearing contrib. (-TS)   =      -0.07183421 Ry

     convergence has been achieved in  12 iterations

     negative rho (up, down):  8.485E-05 0.000E+00

     Forces acting on atoms (cartesian axes, Ry/au):

     atom    1 type  1   force =     0.00252764   -0.00122770    0.00000000
     atom    2 type  1   force =    -0.00117073    0.00065074    0.00000000
     atom    3 type  1   force =    -0.01349128   -0.00785100    0.00000000
     atom    4 type  1   force =    -0.01418131    0.00588970    0.00000000
     atom    5 type  1   force =    -0.00000000    0.00318970    0.00000000
     atom    6 type  1   force =    -0.00172952   -0.01513056    0.00000000
     atom    7 type  1   force =    -0.00276715   -0.00156101    0.00000000
     atom    8 type  1   force =     0.00000000   -0.00176998    0.00000000
     atom    9 type  1   force =    -0.00000000    0.00319735    0.00000000
     atom   10 type  1   force =     0.00117073    0.00065074    0.00000000
     atom   11 type  1   force =     0.00289922    0.00519797    0.00000000
     atom   12 type  1   force =    -0.00000000    0.00211398    0.00000000
     atom   13 type  1   force =     0.00583440   -0.00045566    0.00000000
     atom   14 type  1   force =    -0.00424636   -0.00241428    0.00000000
     atom   15 type  1   force =     0.00276715   -0.00156101    0.00000000
     atom   16 type  1   force =     0.00162329   -0.00093634    0.00000000
     atom   17 type  1   force =    -0.00252764   -0.00122770    0.00000000
     atom   18 type  1   force =     0.01250109    0.00901439    0.00000000
     atom   19 type  1   force =    -0.00289922    0.00519797    0.00000000
     atom   20 type  1   force =     0.01418131    0.00588970    0.00000000
     atom   21 type  1   force =    -0.00000000    0.00006444    0.00000000
     atom   22 type  1   force =     0.00424636   -0.00241428    0.00000000
     atom   23 type  1   force =     0.00330390   -0.00470131    0.00000000
     atom   24 type  1   force =    -0.00000000    0.00485051    0.00000000
     atom   25 type  1   force =    -0.00000000    0.01540410    0.00000000
     atom   26 type  1   force =    -0.01250109    0.00901439    0.00000000
     atom   27 type  1   force =     0.01349128   -0.00785100    0.00000000
     atom   28 type  1   force =    -0.00583440   -0.00045566    0.00000000
     atom   29 type  1   force =     0.00172952   -0.01513056    0.00000000
     atom   30 type  1   force =    -0.00330390   -0.00470131    0.00000000
     atom   31 type  1   force =    -0.00162329   -0.00093634    0.00000000

     Total force =     0.049863     Total SCF correction =     0.000629


[...]
     Results may differ from those at the preceding step.
 
     Parallelization info
     --------------------
     sticks:   dense  smooth     PW     G-vecs:    dense   smooth      PW
     Min        2376    2376    593               341250   341250   42643
     Max        2377    2377    594               341255   341255   42646
     Sum       19015   19015   4749              2730025  2730025  341163
 


     bravais-lattice index     =            4
     lattice parameter (alat)  =      33.6810  a.u.
     unit-cell volume          =   28244.5337 (a.u.)^3
     number of atoms/cell      =           31
     number of atomic types    =            1
     number of electrons       =        93.00
     number of Kohn-Sham states=           56
     kinetic-energy cutoff     =      80.0000  Ry
     charge density cutoff     =     320.0000  Ry
     convergence threshold     =      1.0E-08
     mixing beta               =       0.4000
     number of iterations used =            8  plain     mixing
     Exchange-correlation      = PBE ( 1  4  3  4 0 0)

     celldm(1)=  33.680967  celldm(2)=   0.000000  celldm(3)=   1.122133
     celldm(4)=   0.000000  celldm(5)=   0.000000  celldm(6)=   0.000000

     crystal axes: (cart. coord. in units of alat)
               a(1) = (   0.866047   0.000000   0.000000 )  
               a(2) = (  -0.433024   0.760667   0.000000 )  
               a(3) = (   0.000000   0.000000   1.122133 )  

     reciprocal axes: (cart. coord. in units 2 pi/alat)
               b(1) = (  1.154671  0.657318  0.000000 )  
               b(2) = ( -0.000000  1.314635  0.000000 )  
               b(3) = (  0.000000  0.000000  0.891160 )  


     PseudoPot. # 1 for Al read from file:
     ./Al.upf
     MD5 check sum: 4974d48a734c9d7d1eb6780a1419d19d
     Pseudo is Norm-conserving + core correction, Zval =  3.0
     Generated using ONCVPSP code by D. R. Hamann
     Using radial grid of 1876 points,  6 beta functions with: 
                l(1) =   0
                l(2) =   0
                l(3) =   1
                l(4) =   1
                l(5) =   2
                l(6) =   2

     atomic species   valence    mass     pseudopotential
        Al             3.00    29.98200     Al( 1.00)

      4 Sym. Ops. (no inversion) found ( 2 have fractional translation)



   Cartesian axes

     site n.     atom                  positions (alat units)
         1           Al  tau(   1) = (   0.0013099   0.0624456   0.0000000  )
         2           Al  tau(   2) = (   0.1395464   0.0843115   0.0000000  )
         3           Al  tau(   3) = (  -0.1361882   0.3139931   0.0000000  )
         4           Al  tau(   4) = (  -0.0553266   0.1971341   0.0000000  )
         5           Al  tau(   5) = (  -0.2165114   0.5802795   0.0000000  )
         6           Al  tau(   6) = (  -0.1410438   0.4545790   0.0000000  )
         7           Al  tau(   7) = (  -0.3521254   0.6882813   0.0000000  )
         8           Al  tau(   8) = (  -0.2165098   0.7230656   0.0000000  )
         9           Al  tau(   9) = (   0.2165128   0.2037379   0.0000000  )
        10           Al  tau(  10) = (   0.2934809   0.0843124   0.0000000  )
        11           Al  tau(  11) = (   0.0788558   0.2652493   0.0000000  )
        12           Al  tau(  12) = (   0.2165144   0.3392094   0.0000000  )
        13           Al  tau(  13) = (  -0.0333273   0.5487414   0.0000000  )
        14           Al  tau(  14) = (   0.0621005   0.4178229   0.0000000  )
        15           Al  tau(  15) = (  -0.0808958   0.6882822   0.0000000  )
        16           Al  tau(  16) = (   0.1115804   0.5635176   0.0000000  )
        17           Al  tau(  17) = (   0.4317158   0.0624474   0.0000000  )
        18           Al  tau(  18) = (   0.5755157   0.0651263   0.0000000  )
        19           Al  tau(  19) = (   0.3541714   0.2652502   0.0000000  )
        20           Al  tau(  20) = (   0.4883554   0.1971358   0.0000000  )
        21           Al  tau(  21) = (   0.2165144   0.4746829   0.0000000  )
        22           Al  tau(  22) = (   0.3709298   0.4178238   0.0000000  )
        23           Al  tau(  23) = (   0.0690848   0.6973812   0.0000000  )
        24           Al  tau(  24) = (   0.2165160   0.6865838   0.0000000  )
        25           Al  tau(  25) = (   0.6495385   0.1925167   0.0000000  )
        26           Al  tau(  26) = (   0.7235631   0.0651272   0.0000000  )
        27           Al  tau(  27) = (   0.5692154   0.3139958   0.0000000  )
        28           Al  tau(  28) = (   0.4663560   0.5487432   0.0000000  )
        29           Al  tau(  29) = (   0.5740742   0.4545817   0.0000000  )
        30           Al  tau(  30) = (   0.3639454   0.6973821   0.0000000  )
        31           Al  tau(  31) = (   0.3214515   0.5635194   0.0000000  )

     number of k points=     1  Methfessel-Paxton smearing, width (Ry)=  0.0500
                       cart. coord. in units 2pi/alat
        k(    1) = (   0.0000000   0.0000000   0.0000000), wk =   2.0000000

     Dense  grid:  2730025 G-vectors     FFT dimensions: ( 180, 180, 216)

     Estimated max dynamical RAM per process >     914.83 MB

     Estimated total dynamical RAM >       7.15 GB

     Initial potential from superposition of free atoms

     starting charge   92.92414, renormalised to   93.00000

     negative rho (up, down):  7.478E-05 0.000E+00
     Starting wfcs are  124 randomized atomic wfcs

     total cpu time spent up to now is    53016.1 secs

     Self-consistent Calculation

     iteration #  1     ecut=    80.00 Ry     beta= 0.40
     Davidson diagonalization with overlap
     c_bands:  1 eigenvalues not converged
     ethr =  1.00E-06,  avg # of iterations = 20.0

     negative rho (up, down):  2.030E-05 0.000E+00

     total cpu time spent up to now is    53074.6 secs

     total energy              =    -141.73760756 Ry
     Harris-Foulkes estimate   =    -142.19030236 Ry
     estimated scf accuracy    <       1.17576978 Ry

     iteration #  2     ecut=    80.00 Ry     beta= 0.40
     Davidson diagonalization with overlap
     ethr =  1.26E-03,  avg # of iterations =  4.0

     negative rho (up, down):  2.050E-05 0.000E+00

     total cpu time spent up to now is    53091.5 secs

     total energy              =    -141.66363326 Ry
     Harris-Foulkes estimate   =    -141.97409979 Ry
     estimated scf accuracy    <       0.88106100 Ry

     iteration #  3     ecut=    80.00 Ry     beta= 0.40
     Davidson diagonalization with overlap
     ethr =  9.47E-04,  avg # of iterations =  5.0

     negative rho (up, down):  2.403E-05 0.000E+00

     total cpu time spent up to now is    53119.0 secs

     total energy              =    -141.73979925 Ry
     Harris-Foulkes estimate   =    -141.95442906 Ry
     estimated scf accuracy    <       1.02239568 Ry

     iteration #  4     ecut=    80.00 Ry     beta= 0.40
     Davidson diagonalization with overlap
     ethr =  9.47E-04,  avg # of iterations =  3.0

     negative rho (up, down):  2.588E-05 0.000E+00

     total cpu time spent up to now is    53135.3 secs

     total energy              =    -141.83278553 Ry
     Harris-Foulkes estimate   =    -141.84544341 Ry
     estimated scf accuracy    <       0.03928471 Ry

     iteration #  5     ecut=    80.00 Ry     beta= 0.40
     Davidson diagonalization with overlap
     ethr =  4.22E-05,  avg # of iterations = 11.0

     negative rho (up, down):  2.642E-05 0.000E+00

     total cpu time spent up to now is    53160.2 secs

     total energy              =    -141.84769273 Ry
     Harris-Foulkes estimate   =    -141.85698972 Ry
     estimated scf accuracy    <       0.05450213 Ry

     iteration #  6     ecut=    80.00 Ry     beta= 0.40
     Davidson diagonalization with overlap
     ethr =  4.22E-05,  avg # of iterations =  3.0

     negative rho (up, down):  2.699E-05 0.000E+00

     total cpu time spent up to now is    53178.4 secs

     total energy              =    -141.84936563 Ry
     Harris-Foulkes estimate   =    -141.85295235 Ry
     estimated scf accuracy    <       0.01653095 Ry

     iteration #  7     ecut=    80.00 Ry     beta= 0.40
     Davidson diagonalization with overlap
     ethr =  1.78E-05,  avg # of iterations =  4.0

     negative rho (up, down):  2.729E-05 0.000E+00

     total cpu time spent up to now is    53195.7 secs

     total energy              =    -141.85113144 Ry
     Harris-Foulkes estimate   =    -141.85150473 Ry
     estimated scf accuracy    <       0.00138977 Ry

     iteration #  8     ecut=    80.00 Ry     beta= 0.40
     Davidson diagonalization with overlap
     ethr =  1.49E-06,  avg # of iterations =  6.0

     negative rho (up, down):  2.742E-05 0.000E+00

     total cpu time spent up to now is    53220.0 secs

     total energy              =    -141.85138474 Ry
     Harris-Foulkes estimate   =    -141.85191689 Ry
     estimated scf accuracy    <       0.00429654 Ry

     iteration #  9     ecut=    80.00 Ry     beta= 0.40
     Davidson diagonalization with overlap
     ethr =  1.49E-06,  avg # of iterations =  3.0

     negative rho (up, down):  2.750E-05 0.000E+00

     total cpu time spent up to now is    53238.5 secs

     total energy              =    -141.85141528 Ry
     Harris-Foulkes estimate   =    -141.85160211 Ry
     estimated scf accuracy    <       0.00130038 Ry

     iteration # 10     ecut=    80.00 Ry     beta= 0.40
     Davidson diagonalization with overlap
     ethr =  1.40E-06,  avg # of iterations =  4.0

     negative rho (up, down):  2.753E-05 0.000E+00

     total cpu time spent up to now is    53254.6 secs

     total energy              =    -141.85144343 Ry
     Harris-Foulkes estimate   =    -141.85148701 Ry
     estimated scf accuracy    <       0.00020277 Ry

     iteration # 11     ecut=    80.00 Ry     beta= 0.40
     Davidson diagonalization with overlap
     ethr =  2.18E-07,  avg # of iterations =  6.0

     negative rho (up, down):  2.756E-05 0.000E+00

     total cpu time spent up to now is    53277.1 secs

     total energy              =    -141.85149772 Ry
     Harris-Foulkes estimate   =    -141.85150926 Ry
     estimated scf accuracy    <       0.00009088 Ry

     iteration # 12     ecut=    80.00 Ry     beta= 0.40
     Davidson diagonalization with overlap
     ethr =  9.77E-08,  avg # of iterations =  3.0

     negative rho (up, down):  2.757E-05 0.000E+00

     total cpu time spent up to now is    53292.2 secs

     total energy              =    -141.85149829 Ry
     Harris-Foulkes estimate   =    -141.85150264 Ry
     estimated scf accuracy    <       0.00003260 Ry

     iteration # 13     ecut=    80.00 Ry     beta= 0.40
     Davidson diagonalization with overlap
     ethr =  3.51E-08,  avg # of iterations =  4.0

     negative rho (up, down):  2.758E-05 0.000E+00

     total cpu time spent up to now is    53310.0 secs

     total energy              =    -141.85149871 Ry
     Harris-Foulkes estimate   =    -141.85150034 Ry
     estimated scf accuracy    <       0.00000622 Ry

     iteration # 14     ecut=    80.00 Ry     beta= 0.40
     Davidson diagonalization with overlap
     ethr =  6.69E-09,  avg # of iterations =  6.0

     negative rho (up, down):  2.759E-05 0.000E+00

     total cpu time spent up to now is    53334.5 secs

     total energy              =    -141.85150072 Ry
     Harris-Foulkes estimate   =    -141.85150133 Ry
     estimated scf accuracy    <       0.00000575 Ry

     iteration # 15     ecut=    80.00 Ry     beta= 0.40
     Davidson diagonalization with overlap
     ethr =  6.18E-09,  avg # of iterations =  1.0

     negative rho (up, down):  2.759E-05 0.000E+00

     total cpu time spent up to now is    53350.3 secs

     total energy              =    -141.85150044 Ry
     Harris-Foulkes estimate   =    -141.85150084 Ry
     estimated scf accuracy    <       0.00000243 Ry

     iteration # 16     ecut=    80.00 Ry     beta= 0.40
     Davidson diagonalization with overlap
     ethr =  2.61E-09,  avg # of iterations =  4.0

     negative rho (up, down):  2.759E-05 0.000E+00

     total cpu time spent up to now is    53369.4 secs

     total energy              =    -141.85150066 Ry
     Harris-Foulkes estimate   =    -141.85150068 Ry
     estimated scf accuracy    <       0.00000005 Ry

     iteration # 17     ecut=    80.00 Ry     beta= 0.40
     Davidson diagonalization with overlap
     ethr =  4.98E-11,  avg # of iterations =  7.0

     negative rho (up, down):  2.759E-05 0.000E+00

     total cpu time spent up to now is    53397.2 secs

     total energy              =    -141.85150069 Ry
     Harris-Foulkes estimate   =    -141.85150071 Ry
     estimated scf accuracy    <       0.00000009 Ry

     iteration # 18     ecut=    80.00 Ry     beta= 0.40
     Davidson diagonalization with overlap
     ethr =  4.98E-11,  avg # of iterations =  4.0

     negative rho (up, down):  2.759E-05 0.000E+00

     total cpu time spent up to now is    53417.6 secs

     total energy              =    -141.85150069 Ry
     Harris-Foulkes estimate   =    -141.85150070 Ry
     estimated scf accuracy    <       0.00000002 Ry

     iteration # 19     ecut=    80.00 Ry     beta= 0.40
     Davidson diagonalization with overlap
     ethr =  2.44E-11,  avg # of iterations =  3.0

     negative rho (up, down):  2.759E-05 0.000E+00

     total cpu time spent up to now is    53434.7 secs

     End of self-consistent calculation

          k = 0.0000 0.0000 0.0000 (341163 PWs)   bands (ev):

   -11.3527 -10.7456 -10.6737 -10.5523 -10.3862 -10.2836  -9.9013  -9.1556
    -8.9079  -8.8963  -8.8161  -8.6632  -8.3826  -8.2888  -8.1560  -7.9280
    -7.7594  -7.7015  -7.3530  -6.0959  -6.0551  -6.0422  -5.8288  -5.7886
    -5.6956  -5.6491  -5.5638  -5.4572  -5.2944  -5.0563  -5.0533  -4.7177
    -4.5946  -4.3170  -4.1663  -4.0906  -4.0428  -3.9809  -3.8561  -3.7991
    -3.7238  -3.5001  -3.4950  -3.4745  -2.5765  -2.4296  -2.3917  -2.3677
    -2.3588  -2.2952  -2.2682  -2.1004  -2.0135  -1.9869  -1.7797  -1.6681

     the Fermi energy is    -2.5262 ev

!    total energy              =    -141.85150068 Ry
     Harris-Foulkes estimate   =    -141.85150069 Ry
     estimated scf accuracy    <          9.1E-09 Ry

     The total energy is the sum of the following terms:

     one-electron contribution =    -652.05121498 Ry
     hartree contribution      =     334.94148279 Ry
     xc contribution           =     -63.19130671 Ry
     ewald contribution        =     238.48949435 Ry
     smearing contrib. (-TS)   =      -0.03995615 Ry

     convergence has been achieved in  19 iterations

     negative rho (up, down):  2.759E-05 0.000E+00

     Forces acting on atoms (cartesian axes, Ry/au):

     atom    1 type  1   force =    -0.00019153    0.00031868    0.00000000
     atom    2 type  1   force =     0.00010753   -0.00004939    0.00000000
     atom    3 type  1   force =    -0.00044017   -0.00016571    0.00000000
     atom    4 type  1   force =     0.00015227   -0.00016575    0.00000000
     atom    5 type  1   force =     0.00000000   -0.00021215    0.00000000
     atom    6 type  1   force =    -0.00005946   -0.00032262    0.00000000
     atom    7 type  1   force =     0.00030583   -0.00066127    0.00000000
     atom    8 type  1   force =    -0.00000000    0.00059209    0.00000000
     atom    9 type  1   force =    -0.00000000    0.00074944    0.00000000
     atom   10 type  1   force =    -0.00010753   -0.00004939    0.00000000
     atom   11 type  1   force =    -0.00016241   -0.00004043    0.00000000
     atom   12 type  1   force =     0.00000000   -0.00029907    0.00000000
     atom   13 type  1   force =    -0.00059142    0.00039938    0.00000000
     atom   14 type  1   force =     0.00010925   -0.00016019    0.00000000
     atom   15 type  1   force =    -0.00030583   -0.00066127    0.00000000
     atom   16 type  1   force =     0.00003016    0.00003264    0.00000000
     atom   17 type  1   force =     0.00019153    0.00031868    0.00000000
     atom   18 type  1   force =     0.00025495   -0.00049709    0.00000000
     atom   19 type  1   force =     0.00016241   -0.00004043    0.00000000
     atom   20 type  1   force =    -0.00015227   -0.00016575    0.00000000
     atom   21 type  1   force =    -0.00000000    0.00022572    0.00000000
     atom   22 type  1   force =    -0.00010925   -0.00016019    0.00000000
     atom   23 type  1   force =     0.00032143   -0.00047583    0.00000000
     atom   24 type  1   force =    -0.00000000    0.00085248    0.00000000
     atom   25 type  1   force =    -0.00000000    0.00166666    0.00000000
     atom   26 type  1   force =    -0.00025495   -0.00049709    0.00000000
     atom   27 type  1   force =     0.00044017   -0.00016571    0.00000000
     atom   28 type  1   force =     0.00059142    0.00039938    0.00000000
     atom   29 type  1   force =     0.00005946   -0.00032262    0.00000000
     atom   30 type  1   force =    -0.00032143   -0.00047583    0.00000000
     atom   31 type  1   force =    -0.00003016    0.00003264    0.00000000

     Total force =     0.003027     Total SCF correction =     0.000100


     Computing stress (Cartesian axis) and pressure


     negative rho (up, down):  2.759E-05 0.000E+00
          total   stress  (Ry/bohr**3)                   (kbar)     P=    0.05
  -0.00000007   0.00000000   0.00000000         -0.01      0.00      0.00
   0.00000000   0.00000109   0.00000000          0.00      0.16      0.00
   0.00000000   0.00000000  -0.00000001          0.00      0.00     -0.00


     Writing output data file 28al_planar_2x2_vcr.save/
 
     init_run     :     39.00s CPU     45.21s WALL (       2 calls)
     electrons    :  35144.50s CPU  41772.11s WALL (     158 calls)
     update_pot   :   2528.47s CPU   2570.83s WALL (     156 calls)
     forces       :   2145.45s CPU   2223.89s WALL (     158 calls)
     stress       :   6565.52s CPU   6753.91s WALL (     158 calls)

     Called by init_run:
     wfcinit      :     19.35s CPU     24.78s WALL (       2 calls)
     potinit      :      7.53s CPU      7.96s WALL (       2 calls)
     hinit0       :      8.81s CPU      8.99s WALL (       2 calls)

     Called by electrons:
     c_bands      :  29485.39s CPU  34743.44s WALL (    1529 calls)
     sum_band     :   3807.61s CPU   4738.82s WALL (    1529 calls)
     v_of_rho     :   1584.83s CPU   1880.56s WALL (    1626 calls)
     mix_rho      :    327.27s CPU    456.10s WALL (    1529 calls)

     Called by c_bands:
     init_us_2    :    428.00s CPU    449.41s WALL (    3060 calls)
     cegterg      :  25349.55s CPU  30579.28s WALL (    1530 calls)

     Called by sum_band:

     Called by *egterg:
     h_psi        :  22073.10s CPU  27136.86s WALL (   10068 calls)
     g_psi        :     80.01s CPU     81.84s WALL (    8536 calls)
     cdiaghg      :     75.77s CPU     77.07s WALL (    9848 calls)

     Called by h_psi:
     h_psi:pot    :  22021.15s CPU  26995.74s WALL (   10068 calls)
     h_psi:calbec :   2745.09s CPU   2796.53s WALL (   10068 calls)
     vloc_psi     :  16530.69s CPU  21442.64s WALL (   10068 calls)
     add_vuspsi   :   2745.25s CPU   2756.49s WALL (   10068 calls)

     General routines
     calbec       :   3165.62s CPU   3224.17s WALL (   10858 calls)
     fft          :   1491.32s CPU   1718.45s WALL (   20427 calls)
     ffts         :     92.74s CPU    109.76s WALL (    1529 calls)
     fftw         :  17588.99s CPU  23230.37s WALL (  599034 calls)
 
     Parallel routines
     fft_scatt_xy :   2994.39s CPU   4234.04s WALL (  620990 calls)
     fft_scatt_yz :   8132.87s CPU   9255.82s WALL (  620990 calls)
 
     PWSCF        :    12h54m CPU       54h14m WALL

      51h
 
   This run was terminated on:   0: 6:16  27Nov2020            

=------------------------------------------------------------------------------=
   JOB DONE.
=------------------------------------------------------------------------------=
