
     Program PWSCF v.6.3MaX starts on 25Nov2020 at 16:43:12 

     This program is part of the open-source Quantum ESPRESSO suite
     for quantum simulation of materials; please cite
         "P. Giannozzi et al., J. Phys.:Condens. Matter 21 395502 (2009);
         "P. Giannozzi et al., J. Phys.:Condens. Matter 29 465901 (2017);
          URL http://www.quantum-espresso.org", 
     in publications or presentations arising from this work. More details at
     http://www.quantum-espresso.org/quote

     Parallel version (MPI), running on     8 processors

     MPI processes distributed on     5 nodes
     R & G space division:  proc/nbgrp/npool/nimage =       8
     Waiting for input...
     Reading input from standard input

     Current dimensions of program PWSCF are:
     Max number of different atomic species (ntypx) = 10
     Max number of k-points (npk) =  40000
     Max angular momentum in pseudopotentials (lmaxx) =  3

     Subspace diagonalization in iterative solution of the eigenvalue problem:
     a serial algorithm will be used

 
     Parallelization info
     --------------------
     sticks:   dense  smooth     PW     G-vecs:    dense   smooth      PW
     Min        1758    1758    438               252392   252392   31546
     Max        1759    1759    439               252397   252397   31551
     Sum       14071   14071   3505              2019149  2019149  252395
 


     bravais-lattice index     =            4
     lattice parameter (alat)  =      25.2607  a.u.
     unit-cell volume          =   20885.8003 (a.u.)^3
     number of atoms/cell      =           17
     number of atomic types    =            1
     number of electrons       =        51.00
     number of Kohn-Sham states=           31
     kinetic-energy cutoff     =      80.0000  Ry
     charge density cutoff     =     320.0000  Ry
     convergence threshold     =      1.0E-06
     mixing beta               =       0.4000
     number of iterations used =            8  plain     mixing
     Exchange-correlation      = PBE ( 1  4  3  4 0 0)
     nstep                     =          300


     celldm(1)=  25.260725  celldm(2)=   0.000000  celldm(3)=   1.496177
     celldm(4)=   0.000000  celldm(5)=   0.000000  celldm(6)=   0.000000

     crystal axes: (cart. coord. in units of alat)
               a(1) = (   1.000000   0.000000   0.000000 )  
               a(2) = (  -0.500000   0.866025   0.000000 )  
               a(3) = (   0.000000   0.000000   1.496177 )  

     reciprocal axes: (cart. coord. in units 2 pi/alat)
               b(1) = (  1.000000  0.577350  0.000000 )  
               b(2) = (  0.000000  1.154701  0.000000 )  
               b(3) = (  0.000000  0.000000  0.668370 )  


     PseudoPot. # 1 for Al read from file:
     ./Al.upf
     MD5 check sum: 4974d48a734c9d7d1eb6780a1419d19d
     Pseudo is Norm-conserving + core correction, Zval =  3.0
     Generated using ONCVPSP code by D. R. Hamann
     Using radial grid of 1876 points,  6 beta functions with: 
                l(1) =   0
                l(2) =   0
                l(3) =   1
                l(4) =   1
                l(5) =   2
                l(6) =   2

     atomic species   valence    mass     pseudopotential
        Al             3.00    29.98200     Al( 1.00)

      2 Sym. Ops. (no inversion) found



   Cartesian axes

     site n.     atom                  positions (alat units)
         1           Al  tau(   1) = (   0.0000000   0.1924524   0.0000000  )
         2           Al  tau(   2) = (   0.1666687   0.0962261   0.0000000  )
         3           Al  tau(   3) = (   0.3333348   0.1924537   0.0000000  )
         4           Al  tau(   4) = (   0.5000036   0.0962275   0.0000000  )
         5           Al  tau(   5) = (  -0.1666663   0.4811295   0.0000000  )
         6           Al  tau(   6) = (   0.0000024   0.3849033   0.0000000  )
         7           Al  tau(   7) = (   0.1666686   0.4811309   0.0000000  )
         8           Al  tau(   8) = (   0.3333373   0.3849047   0.0000000  )
         9           Al  tau(   9) = (  -0.3333326   0.7698067   0.0000000  )
        10           Al  tau(  10) = (  -0.1666639   0.6735805   0.0000000  )
        11           Al  tau(  11) = (   0.1666710   0.6735818   0.0000000  )
        12           Al  tau(  12) = (   0.6666697   0.1924551   0.0000000  )
        13           Al  tau(  13) = (   0.8333384   0.0962289   0.0000000  )
        14           Al  tau(  14) = (   0.5000035   0.4811323   0.0000000  )
        15           Al  tau(  15) = (   0.6666722   0.3849060   0.0000000  )
        16           Al  tau(  16) = (   0.3333372   0.7698094   0.0000000  )
        17           Al  tau(  17) = (   0.5000059   0.6735832   0.0000000  )

     number of k points=     1  Methfessel-Paxton smearing, width (Ry)=  0.0500
                       cart. coord. in units 2pi/alat
        k(    1) = (   0.0000000   0.0000000   0.0000000), wk =   2.0000000

     Dense  grid:  2019149 G-vectors     FFT dimensions: ( 144, 144, 216)

     Estimated max dynamical RAM per process >     437.36 MB

     Estimated total dynamical RAM >       3.42 GB

     Initial potential from superposition of free atoms

     starting charge   50.95840, renormalised to   51.00000

     negative rho (up, down):  5.196E-05 0.000E+00
     Starting wfcs are   68 randomized atomic wfcs

     total cpu time spent up to now is       14.5 secs

     Self-consistent Calculation

     iteration #  1     ecut=    80.00 Ry     beta= 0.40
     Davidson diagonalization with overlap
     ethr =  1.00E-02,  avg # of iterations =  2.0

     total cpu time spent up to now is       21.2 secs

     total energy              =     -77.03432537 Ry
     Harris-Foulkes estimate   =     -77.31746430 Ry
     estimated scf accuracy    <       0.79332636 Ry

     iteration #  2     ecut=    80.00 Ry     beta= 0.40
     Davidson diagonalization with overlap
     ethr =  1.56E-03,  avg # of iterations =  4.0

     total cpu time spent up to now is       27.4 secs

     total energy              =     -77.00095926 Ry
     Harris-Foulkes estimate   =     -77.25623637 Ry
     estimated scf accuracy    <       0.83423416 Ry

     iteration #  3     ecut=    80.00 Ry     beta= 0.40
     Davidson diagonalization with overlap
     ethr =  1.56E-03,  avg # of iterations =  3.0

     total cpu time spent up to now is       33.3 secs

     total energy              =     -77.12652527 Ry
     Harris-Foulkes estimate   =     -77.19009135 Ry
     estimated scf accuracy    <       0.29532922 Ry

     iteration #  4     ecut=    80.00 Ry     beta= 0.40
     Davidson diagonalization with overlap
     ethr =  5.79E-04,  avg # of iterations =  2.0

     total cpu time spent up to now is       38.5 secs

     total energy              =     -77.14834353 Ry
     Harris-Foulkes estimate   =     -77.16553220 Ry
     estimated scf accuracy    <       0.07405744 Ry

     iteration #  5     ecut=    80.00 Ry     beta= 0.40
     Davidson diagonalization with overlap
     ethr =  1.45E-04,  avg # of iterations =  3.0

     total cpu time spent up to now is       43.8 secs

     total energy              =     -77.15928356 Ry
     Harris-Foulkes estimate   =     -77.16220376 Ry
     estimated scf accuracy    <       0.01609562 Ry

     iteration #  6     ecut=    80.00 Ry     beta= 0.40
     Davidson diagonalization with overlap
     ethr =  3.16E-05,  avg # of iterations =  4.0

     total cpu time spent up to now is       50.3 secs

     total energy              =     -77.16167972 Ry
     Harris-Foulkes estimate   =     -77.16208720 Ry
     estimated scf accuracy    <       0.00257581 Ry

     iteration #  7     ecut=    80.00 Ry     beta= 0.40
     Davidson diagonalization with overlap
     ethr =  5.05E-06,  avg # of iterations =  3.0

     total cpu time spent up to now is       56.5 secs

     total energy              =     -77.16200118 Ry
     Harris-Foulkes estimate   =     -77.16216550 Ry
     estimated scf accuracy    <       0.00062506 Ry

     iteration #  8     ecut=    80.00 Ry     beta= 0.40
     Davidson diagonalization with overlap
     ethr =  1.23E-06,  avg # of iterations =  3.0

     total cpu time spent up to now is       62.6 secs

     total energy              =     -77.16204517 Ry
     Harris-Foulkes estimate   =     -77.16220348 Ry
     estimated scf accuracy    <       0.00100736 Ry

     iteration #  9     ecut=    80.00 Ry     beta= 0.40
     Davidson diagonalization with overlap
     ethr =  1.23E-06,  avg # of iterations =  1.0

     total cpu time spent up to now is       67.9 secs

     total energy              =     -77.16209991 Ry
     Harris-Foulkes estimate   =     -77.16211843 Ry
     estimated scf accuracy    <       0.00007604 Ry

     iteration # 10     ecut=    80.00 Ry     beta= 0.40
     Davidson diagonalization with overlap
     ethr =  1.49E-07,  avg # of iterations =  5.0

     total cpu time spent up to now is       76.0 secs

     total energy              =     -77.16211480 Ry
     Harris-Foulkes estimate   =     -77.16212945 Ry
     estimated scf accuracy    <       0.00010482 Ry

     iteration # 11     ecut=    80.00 Ry     beta= 0.40
     Davidson diagonalization with overlap
     ethr =  1.49E-07,  avg # of iterations =  2.0

     total cpu time spent up to now is       81.7 secs

     total energy              =     -77.16211586 Ry
     Harris-Foulkes estimate   =     -77.16212310 Ry
     estimated scf accuracy    <       0.00003715 Ry

     iteration # 12     ecut=    80.00 Ry     beta= 0.40
     Davidson diagonalization with overlap
     ethr =  7.28E-08,  avg # of iterations =  3.0

     total cpu time spent up to now is       87.7 secs

     total energy              =     -77.16211869 Ry
     Harris-Foulkes estimate   =     -77.16211974 Ry
     estimated scf accuracy    <       0.00000410 Ry

     iteration # 13     ecut=    80.00 Ry     beta= 0.40
     Davidson diagonalization with overlap
     ethr =  8.04E-09,  avg # of iterations =  7.0

     total cpu time spent up to now is       96.4 secs

     total energy              =     -77.16211974 Ry
     Harris-Foulkes estimate   =     -77.16212123 Ry
     estimated scf accuracy    <       0.00001168 Ry

     iteration # 14     ecut=    80.00 Ry     beta= 0.40
     Davidson diagonalization with overlap
     ethr =  8.04E-09,  avg # of iterations =  3.0

     total cpu time spent up to now is      102.2 secs

     total energy              =     -77.16211983 Ry
     Harris-Foulkes estimate   =     -77.16212074 Ry
     estimated scf accuracy    <       0.00000542 Ry

     iteration # 15     ecut=    80.00 Ry     beta= 0.40
     Davidson diagonalization with overlap
     ethr =  8.04E-09,  avg # of iterations =  1.0

     total cpu time spent up to now is      107.8 secs

     total energy              =     -77.16212004 Ry
     Harris-Foulkes estimate   =     -77.16212027 Ry
     estimated scf accuracy    <       0.00000145 Ry

     iteration # 16     ecut=    80.00 Ry     beta= 0.40
     Davidson diagonalization with overlap
     ethr =  2.85E-09,  avg # of iterations =  5.0

     total cpu time spent up to now is      113.9 secs

     End of self-consistent calculation

          k = 0.0000 0.0000 0.0000 (252395 PWs)   bands (ev):

    -9.9965  -9.1543  -9.0980  -9.0979  -9.0597  -9.0597  -8.4088  -7.5382
    -7.4673  -7.4673  -6.7264  -5.8850  -5.8792  -5.8791  -5.6093  -5.6092
    -4.7520  -4.7520  -4.0026  -3.5339  -3.3088  -3.2899  -3.2899  -3.2355
    -3.1475  -3.1133  -3.1133  -3.0990  -3.0989  -2.7511  -2.7511

     the Fermi energy is    -3.1136 ev

!    total energy              =     -77.16212014 Ry
     Harris-Foulkes estimate   =     -77.16212025 Ry
     estimated scf accuracy    <       0.00000012 Ry

     The total energy is the sum of the following terms:

     one-electron contribution =    -269.13877882 Ry
     hartree contribution      =     139.26294747 Ry
     xc contribution           =     -33.51701070 Ry
     ewald contribution        =      86.35193765 Ry
     smearing contrib. (-TS)   =      -0.12121575 Ry

     convergence has been achieved in  16 iterations

     Forces acting on atoms (cartesian axes, Ry/au):

     atom    1 type  1   force =     0.00001310    0.00000248    0.00000000
     atom    2 type  1   force =    -0.00062098    0.00037042    0.00000000
     atom    3 type  1   force =     0.00064237    0.00502713    0.00000000
     atom    4 type  1   force =     0.00001524   -0.02228089    0.00000000
     atom    5 type  1   force =    -0.00465084   -0.00193806    0.00000000
     atom    6 type  1   force =     0.00000198   -0.00069508    0.00000000
     atom    7 type  1   force =     0.00467326   -0.00193578    0.00000000
     atom    8 type  1   force =    -0.00823148   -0.00473889    0.00000000
     atom    9 type  1   force =    -0.00402001   -0.00308748    0.00000000
     atom   10 type  1   force =     0.01929877    0.01112459    0.00000000
     atom   11 type  1   force =    -0.01928860    0.01113714    0.00000000
     atom   12 type  1   force =    -0.00063020    0.00502379    0.00000000
     atom   13 type  1   force =     0.00058553    0.00036395    0.00000000
     atom   14 type  1   force =     0.00000521    0.00000383    0.00000000
     atom   15 type  1   force =     0.00820864   -0.00476059    0.00000000
     atom   16 type  1   force =     0.00401806   -0.00309799    0.00000000
     atom   17 type  1   force =    -0.00002007    0.00948142    0.00000000

     Total force =     0.043750     Total SCF correction =     0.000265


     Computing stress (Cartesian axis) and pressure

          total   stress  (Ry/bohr**3)                   (kbar)     P=   -0.80
  -0.00000821   0.00000001   0.00000000         -1.21      0.00      0.00
   0.00000001  -0.00000820   0.00000000          0.00     -1.21      0.00
   0.00000000   0.00000000   0.00000001          0.00      0.00      0.00


     BFGS Geometry Optimization

     number of scf cycles    =   1
     number of bfgs steps    =   0

     enthalpy new            =     -77.1621201398 Ry

     new trust radius        =       0.0222808945 bohr
     new conv_thr            =       0.0000010000 Ry

     new unit-cell volume =  20877.23172 a.u.^3 (  3093.68652 Ang^3 )
     density =      0.27358 g/cm^3

CELL_PARAMETERS (alat= 25.26072511)
   0.999794781   0.000000188   0.000000000
  -0.499897228   0.865847702   0.000000000
   0.000000000   0.000000000   1.496177267

ATOMIC_POSITIONS (angstrom)
Al       0.000008002   2.572061590   0.000000000
Al       2.227141227   1.286226028   0.000000000
Al       4.455246137   2.574739005   0.000000000
Al       6.682384210   1.274260959   0.000000000
Al      -2.229897424   6.429106203   0.000000000
Al       0.000034110   5.143733602   0.000000000
Al       2.229942041   6.429126443   0.000000000
Al       4.450584418   5.141613176   0.000000000
Al      -4.457000381  10.286569376   0.000000000
Al      -2.217193273   9.008058316   0.000000000
Al       2.217297734   9.008083979   0.000000000
Al       8.909479237   2.574756267   0.000000000
Al      11.137592310   1.286260664   0.000000000
Al       6.682378699   6.430171656   0.000000000
Al       8.914188751   5.141620729   0.000000000
Al       4.457065062  10.286601879   0.000000000
Al       6.682398490   9.007227022   0.000000000



     Writing output data file 11al_planar_2x2_vcr.save/
     NEW-OLD atomic charge density approx. for the potential

     negative rho (up, down):  3.811E-07 0.000E+00
     extrapolated charge   50.97909, renormalised to   51.00000

     total cpu time spent up to now is      153.6 secs

     Self-consistent Calculation

     iteration #  1     ecut=    80.00 Ry     beta= 0.40
     Davidson diagonalization with overlap
     ethr =  1.00E-06,  avg # of iterations =  4.0

     negative rho (up, down):  1.936E-07 0.000E+00

     total cpu time spent up to now is      161.7 secs

     total energy              =     -77.16401046 Ry
     Harris-Foulkes estimate   =     -77.26501694 Ry
     estimated scf accuracy    <       0.00011494 Ry

     iteration #  2     ecut=    80.00 Ry     beta= 0.40
     Davidson diagonalization with overlap
     ethr =  2.25E-07,  avg # of iterations =  5.0

     negative rho (up, down):  1.612E-07 0.000E+00

     total cpu time spent up to now is      169.8 secs

     total energy              =     -77.16401884 Ry
     Harris-Foulkes estimate   =     -77.16410317 Ry
     estimated scf accuracy    <       0.00040179 Ry

     iteration #  3     ecut=    80.00 Ry     beta= 0.40
     Davidson diagonalization with overlap
     ethr =  2.25E-07,  avg # of iterations =  3.0

     negative rho (up, down):  1.116E-07 0.000E+00

     total cpu time spent up to now is      176.5 secs

     total energy              =     -77.16405577 Ry
     Harris-Foulkes estimate   =     -77.16406529 Ry
     estimated scf accuracy    <       0.00004034 Ry

     iteration #  4     ecut=    80.00 Ry     beta= 0.40
     Davidson diagonalization with overlap
     ethr =  7.91E-08,  avg # of iterations =  4.0

     negative rho (up, down):  7.808E-08 0.000E+00

     total cpu time spent up to now is      182.3 secs

     total energy              =     -77.16405785 Ry
     Harris-Foulkes estimate   =     -77.16406344 Ry
     estimated scf accuracy    <       0.00002523 Ry

     iteration #  5     ecut=    80.00 Ry     beta= 0.40
     Davidson diagonalization with overlap
     ethr =  4.95E-08,  avg # of iterations =  3.0

     negative rho (up, down):  2.462E-08 0.000E+00

     total cpu time spent up to now is      187.8 secs

     total energy              =     -77.16406075 Ry
     Harris-Foulkes estimate   =     -77.16406162 Ry
     estimated scf accuracy    <       0.00000492 Ry

     iteration #  6     ecut=    80.00 Ry     beta= 0.40
     Davidson diagonalization with overlap
     ethr =  9.66E-09,  avg # of iterations =  6.0

     negative rho (up, down):  1.679E-08 0.000E+00

     total cpu time spent up to now is      194.3 secs

     total energy              =     -77.16406090 Ry
     Harris-Foulkes estimate   =     -77.16406219 Ry
     estimated scf accuracy    <       0.00000678 Ry

     iteration #  7     ecut=    80.00 Ry     beta= 0.40
     Davidson diagonalization with overlap
     ethr =  9.66E-09,  avg # of iterations =  4.0

     total cpu time spent up to now is      200.0 secs

     End of self-consistent calculation

          k = 0.0000 0.0000 0.0000 (252395 PWs)   bands (ev):

    -9.9965  -9.1517  -9.0996  -9.0993  -9.0559  -9.0556  -8.4043  -7.5361
    -7.4658  -7.4657  -6.7340  -5.8837  -5.8720  -5.8718  -5.6132  -5.6129
    -4.7564  -4.7563  -4.0021  -3.5554  -3.2993  -3.2863  -3.2863  -3.2413
    -3.1450  -3.1122  -3.1120  -3.0977  -3.0974  -2.7448  -2.7448

     the Fermi energy is    -3.1122 ev

!    total energy              =     -77.16406112 Ry
     Harris-Foulkes estimate   =     -77.16406173 Ry
     estimated scf accuracy    <       0.00000084 Ry

     The total energy is the sum of the following terms:

     one-electron contribution =    -269.17453132 Ry
     hartree contribution      =     139.27886500 Ry
     xc contribution           =     -33.51208376 Ry
     ewald contribution        =      86.36388269 Ry
     smearing contrib. (-TS)   =      -0.12019373 Ry

     convergence has been achieved in   7 iterations

     Forces acting on atoms (cartesian axes, Ry/au):

     atom    1 type  1   force =     0.00003710   -0.00001524    0.00000000
     atom    2 type  1   force =    -0.00023237    0.00014696    0.00000000
     atom    3 type  1   force =     0.00148476    0.00374581    0.00000000
     atom    4 type  1   force =     0.00000157   -0.02207562    0.00000000
     atom    5 type  1   force =    -0.00397218   -0.00055840    0.00000000
     atom    6 type  1   force =    -0.00001589   -0.00028036    0.00000000
     atom    7 type  1   force =     0.00401185   -0.00057978    0.00000000
     atom    8 type  1   force =    -0.00682196   -0.00395978    0.00000000
     atom    9 type  1   force =    -0.00248446   -0.00314891    0.00000000
     atom   10 type  1   force =     0.01911791    0.01104955    0.00000000
     atom   11 type  1   force =    -0.01914885    0.01105365    0.00000000
     atom   12 type  1   force =    -0.00151188    0.00373048    0.00000000
     atom   13 type  1   force =     0.00022349    0.00015871    0.00000000
     atom   14 type  1   force =    -0.00002018    0.00000591    0.00000000
     atom   15 type  1   force =     0.00682459   -0.00396022    0.00000000
     atom   16 type  1   force =     0.00250100   -0.00318620    0.00000000
     atom   17 type  1   force =     0.00000550    0.00787345    0.00000000

     Total force =     0.041808     Total SCF correction =     0.000570


     Computing stress (Cartesian axis) and pressure

          total   stress  (Ry/bohr**3)                   (kbar)     P=   -0.87
  -0.00000887   0.00000001   0.00000000         -1.30      0.00      0.00
   0.00000001  -0.00000885   0.00000000          0.00     -1.30      0.00
   0.00000000   0.00000000   0.00000005          0.00      0.00      0.01


     number of scf cycles    =   2
     number of bfgs steps    =   1

     enthalpy old            =     -77.1621201398 Ry
     enthalpy new            =     -77.1640611249 Ry

     CASE: enthalpy_new < enthalpy_old


     WARNING: bfgs curvature condition failed, Theta= 0.838
     new trust radius        =       0.0334144876 bohr
     new conv_thr            =       0.0000010000 Ry

     new unit-cell volume =  20863.80603 a.u.^3 (  3091.69704 Ang^3 )
     density =      0.27375 g/cm^3

CELL_PARAMETERS (alat= 25.26072511)
   0.999473064   0.000000431   0.000000000
  -0.499736159   0.865569299   0.000000000
   0.000000000   0.000000000   1.496177267

ATOMIC_POSITIONS (angstrom)
Al       0.000028821   2.571229705   0.000000000
Al       2.226088224   1.286017396   0.000000000
Al       4.454667381   2.577396192   0.000000000
Al       6.680240818   1.256187515   0.000000000
Al      -2.232607229   6.426056476   0.000000000
Al       0.000029662   5.141695344   0.000000000
Al       2.232679833   6.426069995   0.000000000
Al       4.443169465   5.136503535   0.000000000
Al      -4.458141662  10.280777730   0.000000000
Al      -2.201177742   9.013993960   0.000000000
Al       2.201277947   9.014027237   0.000000000
Al       8.905752428   2.577406997   0.000000000
Al      11.134327961   1.286056441   0.000000000
Al       6.680223814   6.428110529   0.000000000
Al       8.917297808   5.136503541   0.000000000
Al       4.458217293  10.280793134   0.000000000
Al       6.680244816   9.011232831   0.000000000



     Writing output data file 11al_planar_2x2_vcr.save/
     NEW-OLD atomic charge density approx. for the potential

     negative rho (up, down):  6.034E-07 0.000E+00
     extrapolated charge   50.96721, renormalised to   51.00000

     total cpu time spent up to now is      238.4 secs

     Self-consistent Calculation

     iteration #  1     ecut=    80.00 Ry     beta= 0.40
     Davidson diagonalization with overlap
     ethr =  1.00E-06,  avg # of iterations =  4.0

     negative rho (up, down):  3.116E-07 0.000E+00

     total cpu time spent up to now is      246.6 secs

     total energy              =     -77.16664104 Ry
     Harris-Foulkes estimate   =     -77.32511422 Ry
     estimated scf accuracy    <       0.00031381 Ry

     iteration #  2     ecut=    80.00 Ry     beta= 0.40
     Davidson diagonalization with overlap
     ethr =  6.15E-07,  avg # of iterations =  5.0

     negative rho (up, down):  2.709E-07 0.000E+00

     total cpu time spent up to now is      253.4 secs

     total energy              =     -77.16660111 Ry
     Harris-Foulkes estimate   =     -77.16697584 Ry
     estimated scf accuracy    <       0.00219403 Ry

     iteration #  3     ecut=    80.00 Ry     beta= 0.40
     Davidson diagonalization with overlap
     ethr =  6.15E-07,  avg # of iterations =  5.0

     negative rho (up, down):  2.060E-07 0.000E+00

     total cpu time spent up to now is      259.6 secs

     total energy              =     -77.16677074 Ry
     Harris-Foulkes estimate   =     -77.16680157 Ry
     estimated scf accuracy    <       0.00014308 Ry

     iteration #  4     ecut=    80.00 Ry     beta= 0.40
     Davidson diagonalization with overlap
     ethr =  2.81E-07,  avg # of iterations =  3.0

     negative rho (up, down):  1.443E-07 0.000E+00

     total cpu time spent up to now is      264.9 secs

     total energy              =     -77.16678083 Ry
     Harris-Foulkes estimate   =     -77.16679084 Ry
     estimated scf accuracy    <       0.00004215 Ry

     iteration #  5     ecut=    80.00 Ry     beta= 0.40
     Davidson diagonalization with overlap
     ethr =  8.26E-08,  avg # of iterations =  4.0

     negative rho (up, down):  6.333E-08 0.000E+00

     total cpu time spent up to now is      270.5 secs

     total energy              =     -77.16678512 Ry
     Harris-Foulkes estimate   =     -77.16678884 Ry
     estimated scf accuracy    <       0.00001480 Ry

     iteration #  6     ecut=    80.00 Ry     beta= 0.40
     Davidson diagonalization with overlap
     ethr =  2.90E-08,  avg # of iterations =  5.0

     negative rho (up, down):  2.942E-08 0.000E+00

     total cpu time spent up to now is      276.5 secs

     total energy              =     -77.16678525 Ry
     Harris-Foulkes estimate   =     -77.16679115 Ry
     estimated scf accuracy    <       0.00003472 Ry

     iteration #  7     ecut=    80.00 Ry     beta= 0.40
     Davidson diagonalization with overlap
     ethr =  2.90E-08,  avg # of iterations =  4.0

     negative rho (up, down):  1.800E-08 0.000E+00

     total cpu time spent up to now is      282.0 secs

     total energy              =     -77.16678838 Ry
     Harris-Foulkes estimate   =     -77.16678861 Ry
     estimated scf accuracy    <       0.00000115 Ry

     iteration #  8     ecut=    80.00 Ry     beta= 0.40
     Davidson diagonalization with overlap
     ethr =  2.25E-09,  avg # of iterations =  7.0

     total cpu time spent up to now is      288.9 secs

     End of self-consistent calculation

          k = 0.0000 0.0000 0.0000 (252395 PWs)   bands (ev):

    -9.9960  -9.1474  -9.1020  -9.1019  -9.0488  -9.0486  -8.3977  -7.5323
    -7.4629  -7.4628  -6.7446  -5.8809  -5.8613  -5.8612  -5.6178  -5.6177
    -4.7624  -4.7624  -4.0013  -3.5881  -3.2846  -3.2803  -3.2802  -3.2487
    -3.1409  -3.1122  -3.1121  -3.0933  -3.0931  -2.7351  -2.7350

     the Fermi energy is    -3.1095 ev

!    total energy              =     -77.16678832 Ry
     Harris-Foulkes estimate   =     -77.16678875 Ry
     estimated scf accuracy    <       0.00000069 Ry

     The total energy is the sum of the following terms:

     one-electron contribution =    -269.23260862 Ry
     hartree contribution      =     139.30375935 Ry
     xc contribution           =     -33.50463295 Ry
     ewald contribution        =      86.38537140 Ry
     smearing contrib. (-TS)   =      -0.11867750 Ry

     convergence has been achieved in   8 iterations

     Forces acting on atoms (cartesian axes, Ry/au):

     atom    1 type  1   force =     0.00001318    0.00000904    0.00000000
     atom    2 type  1   force =     0.00029973   -0.00016345    0.00000000
     atom    3 type  1   force =     0.00262396    0.00198183    0.00000000
     atom    4 type  1   force =    -0.00001449   -0.02180754    0.00000000
     atom    5 type  1   force =    -0.00301921    0.00127916    0.00000000
     atom    6 type  1   force =     0.00001636    0.00033548    0.00000000
     atom    7 type  1   force =     0.00303436    0.00129970    0.00000000
     atom    8 type  1   force =    -0.00497159   -0.00286228    0.00000000
     atom    9 type  1   force =    -0.00039693   -0.00325783    0.00000000
     atom   10 type  1   force =     0.01888373    0.01091425    0.00000000
     atom   11 type  1   force =    -0.01887113    0.01088787    0.00000000
     atom   12 type  1   force =    -0.00263420    0.00198283    0.00000000
     atom   13 type  1   force =    -0.00028458   -0.00017971    0.00000000
     atom   14 type  1   force =    -0.00001218    0.00000041    0.00000000
     atom   15 type  1   force =     0.00495556   -0.00286152    0.00000000
     atom   16 type  1   force =     0.00038819   -0.00329027    0.00000000
     atom   17 type  1   force =    -0.00001078    0.00573204    0.00000000

     Total force =     0.039873     Total SCF correction =     0.000545


     Computing stress (Cartesian axis) and pressure

          total   stress  (Ry/bohr**3)                   (kbar)     P=   -0.96
  -0.00000981   0.00000000   0.00000000         -1.44      0.00      0.00
   0.00000000  -0.00000981   0.00000000          0.00     -1.44      0.00
   0.00000000   0.00000000   0.00000006          0.00      0.00      0.01


     number of scf cycles    =   3
     number of bfgs steps    =   2

     enthalpy old            =     -77.1640611249 Ry
     enthalpy new            =     -77.1667883175 Ry

     CASE: enthalpy_new < enthalpy_old

     new trust radius        =       0.0501055973 bohr
     new conv_thr            =       0.0000010000 Ry

     new unit-cell volume =  20842.36128 a.u.^3 (  3088.51925 Ang^3 )
     density =      0.27404 g/cm^3

CELL_PARAMETERS (alat= 25.26072511)
   0.998959195   0.000000702   0.000000000
  -0.499478990   0.865124287   0.000000000
   0.000000000   0.000000000   1.496177267

ATOMIC_POSITIONS (angstrom)
Al       0.000042344   2.569917758   0.000000000
Al       2.224767704   1.285471490   0.000000000
Al       4.454377151   2.580230887   0.000000000
Al       6.676806603   1.229042572   0.000000000
Al      -2.236038359   6.422412939   0.000000000
Al       0.000045297   5.138857777   0.000000000
Al       2.236134354   6.422445604   0.000000000
Al       4.433003191   5.129330228   0.000000000
Al      -4.458437178  10.271672862   0.000000000
Al      -2.177092449   9.022606242   0.000000000
Al       2.177216463   9.022630631   0.000000000
Al       8.899179392   2.580243269   0.000000000
Al      11.128768134   1.285496321   0.000000000
Al       6.676788711   6.424810534   0.000000000
Al       8.920571674   5.129317828   0.000000000
Al       4.458509146  10.271666625   0.000000000
Al       6.676791636   9.015685241   0.000000000



     Writing output data file 11al_planar_2x2_vcr.save/
     NEW-OLD atomic charge density approx. for the potential

     negative rho (up, down):  9.280E-07 0.000E+00
     extrapolated charge   50.94757, renormalised to   51.00000

     total cpu time spent up to now is      326.8 secs

     Self-consistent Calculation

     iteration #  1     ecut=    80.00 Ry     beta= 0.40
     Davidson diagonalization with overlap
     ethr =  1.00E-06,  avg # of iterations =  6.0

     negative rho (up, down):  4.852E-07 0.000E+00

     total cpu time spent up to now is      335.4 secs

     total energy              =     -77.17037178 Ry
     Harris-Foulkes estimate   =     -77.42381529 Ry
     estimated scf accuracy    <       0.00044298 Ry

     iteration #  2     ecut=    80.00 Ry     beta= 0.40
     Davidson diagonalization with overlap
     ethr =  8.69E-07,  avg # of iterations =  6.0

     negative rho (up, down):  4.147E-07 0.000E+00

     total cpu time spent up to now is      341.8 secs

     total energy              =     -77.17040222 Ry
     Harris-Foulkes estimate   =     -77.17081590 Ry
     estimated scf accuracy    <       0.00221471 Ry

     iteration #  3     ecut=    80.00 Ry     beta= 0.40
     Davidson diagonalization with overlap
     ethr =  8.69E-07,  avg # of iterations =  4.0

     negative rho (up, down):  3.188E-07 0.000E+00

     total cpu time spent up to now is      347.5 secs

     total energy              =     -77.17057414 Ry
     Harris-Foulkes estimate   =     -77.17061545 Ry
     estimated scf accuracy    <       0.00019135 Ry

     iteration #  4     ecut=    80.00 Ry     beta= 0.40
     Davidson diagonalization with overlap
     ethr =  3.75E-07,  avg # of iterations =  5.0

     negative rho (up, down):  2.305E-07 0.000E+00

     total cpu time spent up to now is      353.1 secs

     total energy              =     -77.17058365 Ry
     Harris-Foulkes estimate   =     -77.17060272 Ry
     estimated scf accuracy    <       0.00009146 Ry

     iteration #  5     ecut=    80.00 Ry     beta= 0.40
     Davidson diagonalization with overlap
     ethr =  1.79E-07,  avg # of iterations =  4.0

     negative rho (up, down):  6.644E-08 0.000E+00

     total cpu time spent up to now is      358.2 secs

     total energy              =     -77.17058998 Ry
     Harris-Foulkes estimate   =     -77.17059591 Ry
     estimated scf accuracy    <       0.00002870 Ry

     iteration #  6     ecut=    80.00 Ry     beta= 0.40
     Davidson diagonalization with overlap
     ethr =  5.63E-08,  avg # of iterations =  3.0

     negative rho (up, down):  3.721E-08 0.000E+00

     total cpu time spent up to now is      363.6 secs

     total energy              =     -77.17059141 Ry
     Harris-Foulkes estimate   =     -77.17059772 Ry
     estimated scf accuracy    <       0.00003068 Ry

     iteration #  7     ecut=    80.00 Ry     beta= 0.40
     Davidson diagonalization with overlap
     ethr =  5.63E-08,  avg # of iterations =  2.0

     negative rho (up, down):  2.640E-08 0.000E+00

     total cpu time spent up to now is      368.7 secs

     total energy              =     -77.17059466 Ry
     Harris-Foulkes estimate   =     -77.17059578 Ry
     estimated scf accuracy    <       0.00000560 Ry

     iteration #  8     ecut=    80.00 Ry     beta= 0.40
     Davidson diagonalization with overlap
     ethr =  1.10E-08,  avg # of iterations =  4.0

     negative rho (up, down):  1.870E-08 0.000E+00

     total cpu time spent up to now is      374.3 secs

     total energy              =     -77.17059512 Ry
     Harris-Foulkes estimate   =     -77.17059558 Ry
     estimated scf accuracy    <       0.00000218 Ry

     iteration #  9     ecut=    80.00 Ry     beta= 0.40
     Davidson diagonalization with overlap
     ethr =  4.28E-09,  avg # of iterations =  3.0

     total cpu time spent up to now is      379.2 secs

     End of self-consistent calculation

          k = 0.0000 0.0000 0.0000 (252395 PWs)   bands (ev):

    -9.9956  -9.1420  -9.1059  -9.1056  -9.0387  -9.0385  -8.3908  -7.5268
    -7.4588  -7.4587  -6.7603  -5.8762  -5.8472  -5.8470  -5.6241  -5.6239
    -4.7716  -4.7716  -4.0002  -3.6399  -3.2713  -3.2712  -3.2665  -3.2549
    -3.1354  -3.1137  -3.1134  -3.0856  -3.0854  -2.7216  -2.7215

     the Fermi energy is    -3.1054 ev

!    total energy              =     -77.17059508 Ry
     Harris-Foulkes estimate   =     -77.17059545 Ry
     estimated scf accuracy    <       0.00000071 Ry

     The total energy is the sum of the following terms:

     one-electron contribution =    -269.33286367 Ry
     hartree contribution      =     139.34753191 Ry
     xc contribution           =     -33.49423032 Ry
     ewald contribution        =      86.42547012 Ry
     smearing contrib. (-TS)   =      -0.11650312 Ry

     convergence has been achieved in   9 iterations

     Forces acting on atoms (cartesian axes, Ry/au):

     atom    1 type  1   force =     0.00000845   -0.00000598    0.00000000
     atom    2 type  1   force =     0.00100967   -0.00058475    0.00000000
     atom    3 type  1   force =     0.00417403   -0.00045055    0.00000000
     atom    4 type  1   force =    -0.00000759   -0.02129268    0.00000000
     atom    5 type  1   force =    -0.00170934    0.00384112    0.00000000
     atom    6 type  1   force =    -0.00001145    0.00114292    0.00000000
     atom    7 type  1   force =     0.00171316    0.00382047    0.00000000
     atom    8 type  1   force =    -0.00250620   -0.00146575    0.00000000
     atom    9 type  1   force =     0.00247402   -0.00338353    0.00000000
     atom   10 type  1   force =     0.01844391    0.01065786    0.00000000
     atom   11 type  1   force =    -0.01846355    0.01066756    0.00000000
     atom   12 type  1   force =    -0.00418665   -0.00044904    0.00000000
     atom   13 type  1   force =    -0.00100600   -0.00056493    0.00000000
     atom   14 type  1   force =    -0.00000088   -0.00000189    0.00000000
     atom   15 type  1   force =     0.00251169   -0.00145125    0.00000000
     atom   16 type  1   force =    -0.00245477   -0.00338763    0.00000000
     atom   17 type  1   force =     0.00001150    0.00290805    0.00000000

     Total force =     0.038688     Total SCF correction =     0.000487


     Computing stress (Cartesian axis) and pressure

          total   stress  (Ry/bohr**3)                   (kbar)     P=   -1.09
  -0.00001116  -0.00000000   0.00000000         -1.64     -0.00      0.00
  -0.00000000  -0.00001116   0.00000000         -0.00     -1.64      0.00
   0.00000000   0.00000000   0.00000008          0.00      0.00      0.01


     number of scf cycles    =   4
     number of bfgs steps    =   3

     enthalpy old            =     -77.1667883175 Ry
     enthalpy new            =     -77.1705950778 Ry

     CASE: enthalpy_new < enthalpy_old

     new trust radius        =       0.0751197669 bohr
     new conv_thr            =       0.0000010000 Ry

     new unit-cell volume =  20808.50867 a.u.^3 (  3083.50281 Ang^3 )
     density =      0.27448 g/cm^3

CELL_PARAMETERS (alat= 25.26072511)
   0.998147482   0.000001010   0.000000000
  -0.499072866   0.864421373   0.000000000
   0.000000000   0.000000000   1.496177267

ATOMIC_POSITIONS (angstrom)
Al       0.000060925   2.567832032   0.000000000
Al       2.223077042   1.284372202   0.000000000
Al       4.454617400   2.583090280   0.000000000
Al       6.671389856   1.188332173   0.000000000
Al      -2.240422344   6.418077471   0.000000000
Al       0.000045779   5.134825157   0.000000000
Al       2.240546830   6.418105776   0.000000000
Al       4.418824553   5.119062926   0.000000000
Al      -4.457161739  10.257493940   0.000000000
Al      -2.140921763   9.035124981   0.000000000
Al       2.141054367   9.035165516   0.000000000
Al       8.888095761   2.583103454   0.000000000
Al      11.119577581   1.284402342   0.000000000
Al       6.671370526   6.419595733   0.000000000
Al       8.923879260   5.119039069   0.000000000
Al       4.457247758  10.257475037   0.000000000
Al       6.671353206   9.020561967   0.000000000



     Writing output data file 11al_planar_2x2_vcr.save/
     NEW-OLD atomic charge density approx. for the potential

     negative rho (up, down):  1.409E-06 0.000E+00
     extrapolated charge   50.91710, renormalised to   51.00000

     total cpu time spent up to now is      417.3 secs

     Self-consistent Calculation

     iteration #  1     ecut=    80.00 Ry     beta= 0.40
     Davidson diagonalization with overlap
     ethr =  1.00E-06,  avg # of iterations =  7.0

     negative rho (up, down):  7.493E-07 0.000E+00

     total cpu time spent up to now is      426.4 secs

     total energy              =     -77.17529514 Ry
     Harris-Foulkes estimate   =     -77.57649835 Ry
     estimated scf accuracy    <       0.00107205 Ry

     iteration #  2     ecut=    80.00 Ry     beta= 0.40
     Davidson diagonalization with overlap
     ethr =  2.10E-06,  avg # of iterations =  5.0

     negative rho (up, down):  6.395E-07 0.000E+00

     total cpu time spent up to now is      433.3 secs

     total energy              =     -77.17541841 Ry
     Harris-Foulkes estimate   =     -77.17648284 Ry
     estimated scf accuracy    <       0.00565190 Ry

     iteration #  3     ecut=    80.00 Ry     beta= 0.40
     Davidson diagonalization with overlap
     ethr =  2.10E-06,  avg # of iterations =  4.0

     negative rho (up, down):  5.122E-07 0.000E+00

     total cpu time spent up to now is      439.4 secs

     total energy              =     -77.17584616 Ry
     Harris-Foulkes estimate   =     -77.17592462 Ry
     estimated scf accuracy    <       0.00038571 Ry

     iteration #  4     ecut=    80.00 Ry     beta= 0.40
     Davidson diagonalization with overlap
     ethr =  7.56E-07,  avg # of iterations =  3.0

     negative rho (up, down):  3.832E-07 0.000E+00

     total cpu time spent up to now is      444.6 secs

     total energy              =     -77.17586143 Ry
     Harris-Foulkes estimate   =     -77.17589888 Ry
     estimated scf accuracy    <       0.00020326 Ry

     iteration #  5     ecut=    80.00 Ry     beta= 0.40
     Davidson diagonalization with overlap
     ethr =  3.99E-07,  avg # of iterations =  2.0

     negative rho (up, down):  9.533E-08 0.000E+00

     total cpu time spent up to now is      449.5 secs

     total energy              =     -77.17586571 Ry
     Harris-Foulkes estimate   =     -77.17588251 Ry
     estimated scf accuracy    <       0.00006998 Ry

     iteration #  6     ecut=    80.00 Ry     beta= 0.40
     Davidson diagonalization with overlap
     ethr =  1.37E-07,  avg # of iterations =  5.0

     negative rho (up, down):  4.966E-08 0.000E+00

     total cpu time spent up to now is      455.7 secs

     total energy              =     -77.17586879 Ry
     Harris-Foulkes estimate   =     -77.17589136 Ry
     estimated scf accuracy    <       0.00014220 Ry

     iteration #  7     ecut=    80.00 Ry     beta= 0.40
     Davidson diagonalization with overlap
     ethr =  1.37E-07,  avg # of iterations =  3.0

     negative rho (up, down):  3.603E-08 0.000E+00

     total cpu time spent up to now is      460.8 secs

     total energy              =     -77.17587856 Ry
     Harris-Foulkes estimate   =     -77.17588082 Ry
     estimated scf accuracy    <       0.00000996 Ry

     iteration #  8     ecut=    80.00 Ry     beta= 0.40
     Davidson diagonalization with overlap
     ethr =  1.95E-08,  avg # of iterations =  6.0

     negative rho (up, down):  1.940E-08 0.000E+00

     total cpu time spent up to now is      467.0 secs

     total energy              =     -77.17587956 Ry
     Harris-Foulkes estimate   =     -77.17588026 Ry
     estimated scf accuracy    <       0.00000316 Ry

     iteration #  9     ecut=    80.00 Ry     beta= 0.40
     Davidson diagonalization with overlap
     ethr =  6.19E-09,  avg # of iterations =  3.0

     total cpu time spent up to now is      472.7 secs

     total energy              =     -77.17587967 Ry
     Harris-Foulkes estimate   =     -77.17588033 Ry
     estimated scf accuracy    <       0.00000357 Ry

     iteration # 10     ecut=    80.00 Ry     beta= 0.40
     Davidson diagonalization with overlap
     ethr =  6.19E-09,  avg # of iterations =  1.0

     total cpu time spent up to now is      477.3 secs

     End of self-consistent calculation

          k = 0.0000 0.0000 0.0000 (252395 PWs)   bands (ev):

    -9.9945  -9.1337  -9.1102  -9.1101  -9.0242  -9.0241  -8.3845  -7.5178
    -7.4524  -7.4524  -6.7840  -5.8675  -5.8278  -5.8277  -5.6322  -5.6320
    -4.7849  -4.7848  -3.9981  -3.7244  -3.2736  -3.2569  -3.2568  -3.2271
    -3.1268  -3.1150  -3.1148  -3.0741  -3.0740  -2.7022  -2.7021

     the Fermi energy is    -3.0978 ev

!    total energy              =     -77.17587983 Ry
     Harris-Foulkes estimate   =     -77.17588003 Ry
     estimated scf accuracy    <       0.00000026 Ry

     The total energy is the sum of the following terms:

     one-electron contribution =    -269.50150098 Ry
     hartree contribution      =     139.42056902 Ry
     xc contribution           =     -33.47926934 Ry
     ewald contribution        =      86.49795038 Ry
     smearing contrib. (-TS)   =      -0.11362890 Ry

     convergence has been achieved in  10 iterations

     Forces acting on atoms (cartesian axes, Ry/au):

     atom    1 type  1   force =     0.00001188   -0.00001535    0.00000000
     atom    2 type  1   force =     0.00190199   -0.00109342    0.00000000
     atom    3 type  1   force =     0.00610361   -0.00387995    0.00000000
     atom    4 type  1   force =    -0.00000557   -0.02017157    0.00000000
     atom    5 type  1   force =     0.00029520    0.00723451    0.00000000
     atom    6 type  1   force =     0.00002230    0.00218928    0.00000000
     atom    7 type  1   force =    -0.00029439    0.00722774    0.00000000
     atom    8 type  1   force =     0.00072034    0.00040694    0.00000000
     atom    9 type  1   force =     0.00640733   -0.00334493    0.00000000
     atom   10 type  1   force =     0.01747675    0.01010304    0.00000000
     atom   11 type  1   force =    -0.01748688    0.01009208    0.00000000
     atom   12 type  1   force =    -0.00612429   -0.00389066    0.00000000
     atom   13 type  1   force =    -0.00188509   -0.00111870    0.00000000
     atom   14 type  1   force =    -0.00001791    0.00000851    0.00000000
     atom   15 type  1   force =    -0.00071999    0.00042008    0.00000000
     atom   16 type  1   force =    -0.00640097   -0.00334226    0.00000000
     atom   17 type  1   force =    -0.00000430   -0.00082534    0.00000000

     Total force =     0.039403     Total SCF correction =     0.000383


     Computing stress (Cartesian axis) and pressure

          total   stress  (Ry/bohr**3)                   (kbar)     P=   -1.28
  -0.00001309  -0.00000001   0.00000000         -1.93     -0.00      0.00
  -0.00000001  -0.00001310   0.00000000         -0.00     -1.93      0.00
   0.00000000   0.00000000   0.00000004          0.00      0.00      0.01


     number of scf cycles    =   5
     number of bfgs steps    =   4

     enthalpy old            =     -77.1705950778 Ry
     enthalpy new            =     -77.1758798253 Ry

     CASE: enthalpy_new < enthalpy_old

     new trust radius        =       0.1125880679 bohr
     new conv_thr            =       0.0000010000 Ry

     new unit-cell volume =  20755.14325 a.u.^3 (  3075.59487 Ang^3 )
     density =      0.27519 g/cm^3

CELL_PARAMETERS (alat= 25.26072511)
   0.996866581   0.000001271   0.000000000
  -0.498432190   0.863312220   0.000000000
   0.000000000   0.000000000   1.496177267

ATOMIC_POSITIONS (angstrom)
Al       0.000093835   2.564532641   0.000000000
Al       2.220841781   1.282392979   0.000000000
Al       4.455702774   2.585487857   0.000000000
Al       6.662845966   1.127310820   0.000000000
Al      -2.245861970   6.412913799   0.000000000
Al       0.000069715   5.128976835   0.000000000
Al       2.246029030   6.412944654   0.000000000
Al       4.398739678   5.104190158   0.000000000
Al      -4.452966725  10.235559803   0.000000000
Al      -2.086633854   9.053271200   0.000000000
Al       2.086782698   9.053321563   0.000000000
Al       8.869892539   2.585490345   0.000000000
Al      11.104648101   1.282394833   0.000000000
Al       6.662805509   6.411373410   0.000000000
Al       8.926803150   5.104143218   0.000000000
Al       4.453059591  10.235522740   0.000000000
Al       6.662756410   9.025602287   0.000000000



     Writing output data file 11al_planar_2x2_vcr.save/
     NEW-OLD atomic charge density approx. for the potential

     negative rho (up, down):  2.104E-06 0.000E+00
     extrapolated charge   50.86898, renormalised to   51.00000

     total cpu time spent up to now is      515.3 secs

     Self-consistent Calculation

     iteration #  1     ecut=    80.00 Ry     beta= 0.40
     Davidson diagonalization with overlap
     ethr =  1.00E-06,  avg # of iterations =  8.0

     negative rho (up, down):  1.140E-06 0.000E+00

     total cpu time spent up to now is      526.1 secs

     total energy              =     -77.18119108 Ry
     Harris-Foulkes estimate   =     -77.81672023 Ry
     estimated scf accuracy    <       0.00297128 Ry

     iteration #  2     ecut=    80.00 Ry     beta= 0.40
     Davidson diagonalization with overlap
     ethr =  5.83E-06,  avg # of iterations =  5.0

     negative rho (up, down):  9.657E-07 0.000E+00

     total cpu time spent up to now is      532.8 secs

     total energy              =     -77.18163252 Ry
     Harris-Foulkes estimate   =     -77.18458636 Ry
     estimated scf accuracy    <       0.01528239 Ry

     iteration #  3     ecut=    80.00 Ry     beta= 0.40
     Davidson diagonalization with overlap
     ethr =  5.83E-06,  avg # of iterations =  3.0

     negative rho (up, down):  7.750E-07 0.000E+00

     total cpu time spent up to now is      538.8 secs

     total energy              =     -77.18281789 Ry
     Harris-Foulkes estimate   =     -77.18296711 Ry
     estimated scf accuracy    <       0.00078764 Ry

     iteration #  4     ecut=    80.00 Ry     beta= 0.40
     Davidson diagonalization with overlap
     ethr =  1.54E-06,  avg # of iterations =  4.0

     negative rho (up, down):  6.098E-07 0.000E+00

     total cpu time spent up to now is      544.2 secs

     total energy              =     -77.18283878 Ry
     Harris-Foulkes estimate   =     -77.18291959 Ry
     estimated scf accuracy    <       0.00049135 Ry

     iteration #  5     ecut=    80.00 Ry     beta= 0.40
     Davidson diagonalization with overlap
     ethr =  9.63E-07,  avg # of iterations =  3.0

     negative rho (up, down):  6.492E-08 0.000E+00

     total cpu time spent up to now is      549.0 secs

     total energy              =     -77.18282744 Ry
     Harris-Foulkes estimate   =     -77.18288238 Ry
     estimated scf accuracy    <       0.00020075 Ry

     iteration #  6     ecut=    80.00 Ry     beta= 0.40
     Davidson diagonalization with overlap
     ethr =  3.94E-07,  avg # of iterations =  4.0

     negative rho (up, down):  4.547E-08 0.000E+00

     total cpu time spent up to now is      555.4 secs

     total energy              =     -77.18286763 Ry
     Harris-Foulkes estimate   =     -77.18288828 Ry
     estimated scf accuracy    <       0.00013143 Ry

     iteration #  7     ecut=    80.00 Ry     beta= 0.40
     Davidson diagonalization with overlap
     ethr =  2.58E-07,  avg # of iterations =  2.0

     negative rho (up, down):  3.824E-08 0.000E+00

     total cpu time spent up to now is      560.4 secs

     total energy              =     -77.18286989 Ry
     Harris-Foulkes estimate   =     -77.18287986 Ry
     estimated scf accuracy    <       0.00005622 Ry

     iteration #  8     ecut=    80.00 Ry     beta= 0.40
     Davidson diagonalization with overlap
     ethr =  1.10E-07,  avg # of iterations =  1.0

     negative rho (up, down):  1.303E-08 0.000E+00

     total cpu time spent up to now is      565.3 secs

     total energy              =     -77.18286679 Ry
     Harris-Foulkes estimate   =     -77.18287298 Ry
     estimated scf accuracy    <       0.00001835 Ry

     iteration #  9     ecut=    80.00 Ry     beta= 0.40
     Davidson diagonalization with overlap
     ethr =  3.60E-08,  avg # of iterations =  4.0

     total cpu time spent up to now is      571.3 secs

     total energy              =     -77.18287113 Ry
     Harris-Foulkes estimate   =     -77.18287218 Ry
     estimated scf accuracy    <       0.00000785 Ry

     iteration # 10     ecut=    80.00 Ry     beta= 0.40
     Davidson diagonalization with overlap
     ethr =  1.54E-08,  avg # of iterations =  1.0

     total cpu time spent up to now is      575.8 secs

     total energy              =     -77.18287126 Ry
     Harris-Foulkes estimate   =     -77.18287164 Ry
     estimated scf accuracy    <       0.00000233 Ry

     iteration # 11     ecut=    80.00 Ry     beta= 0.40
     Davidson diagonalization with overlap
     ethr =  4.56E-09,  avg # of iterations =  2.0

     total cpu time spent up to now is      580.3 secs

     End of self-consistent calculation

          k = 0.0000 0.0000 0.0000 (252395 PWs)   bands (ev):

    -9.9933  -9.1205  -9.1161  -9.1161  -9.0056  -9.0055  -8.3835  -7.5052
    -7.4436  -7.4435  -6.8235  -5.8528  -5.8027  -5.8026  -5.6441  -5.6440
    -4.8050  -4.8050  -3.9952  -3.8673  -3.2899  -3.2345  -3.2345  -3.1776
    -3.1158  -3.1157  -3.1127  -3.0592  -3.0592  -2.6760  -2.6759

     the Fermi energy is    -3.0846 ev

!    total energy              =     -77.18287085 Ry
     Harris-Foulkes estimate   =     -77.18287139 Ry
     estimated scf accuracy    <       0.00000082 Ry

     The total energy is the sum of the following terms:

     one-electron contribution =    -269.78884686 Ry
     hartree contribution      =     139.54524162 Ry
     xc contribution           =     -33.45845093 Ry
     ewald contribution        =      86.63012222 Ry
     smearing contrib. (-TS)   =      -0.11093690 Ry

     convergence has been achieved in  11 iterations

     Forces acting on atoms (cartesian axes, Ry/au):

     atom    1 type  1   force =    -0.00003583    0.00000451    0.00000000
     atom    2 type  1   force =     0.00318122   -0.00187115    0.00000000
     atom    3 type  1   force =     0.00850084   -0.00906297    0.00000000
     atom    4 type  1   force =    -0.00000995   -0.01722127    0.00000000
     atom    5 type  1   force =     0.00354097    0.01184873    0.00000000
     atom    6 type  1   force =    -0.00001663    0.00364819    0.00000000
     atom    7 type  1   force =    -0.00359854    0.01185714    0.00000000
     atom    8 type  1   force =     0.00519963    0.00299211    0.00000000
     atom    9 type  1   force =     0.01207395   -0.00282867    0.00000000
     atom   10 type  1   force =     0.01489969    0.00862470    0.00000000
     atom   11 type  1   force =    -0.01492963    0.00862734    0.00000000
     atom   12 type  1   force =    -0.00850241   -0.00902637    0.00000000
     atom   13 type  1   force =    -0.00314419   -0.00184001    0.00000000
     atom   14 type  1   force =     0.00000786   -0.00001126    0.00000000
     atom   15 type  1   force =    -0.00514116    0.00301523    0.00000000
     atom   16 type  1   force =    -0.01205944   -0.00279666    0.00000000
     atom   17 type  1   force =     0.00003364   -0.00595957    0.00000000

     Total force =     0.044263     Total SCF correction =     0.000756


     Computing stress (Cartesian axis) and pressure

          total   stress  (Ry/bohr**3)                   (kbar)     P=   -1.55
  -0.00001583  -0.00000000   0.00000000         -2.33     -0.00      0.00
  -0.00000000  -0.00001583   0.00000000         -0.00     -2.33      0.00
   0.00000000   0.00000000  -0.00000004          0.00      0.00     -0.01


     number of scf cycles    =   6
     number of bfgs steps    =   5

     enthalpy old            =     -77.1758798253 Ry
     enthalpy new            =     -77.1828708462 Ry

     CASE: enthalpy_new < enthalpy_old

     new trust radius        =       0.1686654308 bohr
     new conv_thr            =       0.0000010000 Ry

     new unit-cell volume =  20669.93729 a.u.^3 (  3062.96865 Ang^3 )
     density =      0.27632 g/cm^3

CELL_PARAMETERS (alat= 25.26072511)
   0.994817797   0.000001989   0.000000000
  -0.497407176   0.861538364   0.000000000
   0.000000000   0.000000000   1.496177267

ATOMIC_POSITIONS (angstrom)
Al       0.000108821   2.559272392   0.000000000
Al       2.217956958   1.278797552   0.000000000
Al       4.458255163   2.585765223   0.000000000
Al       6.649179748   1.035931006   0.000000000
Al      -2.251918736   6.407101223   0.000000000
Al       0.000071517   5.120408700   0.000000000
Al       2.252112259   6.407148272   0.000000000
Al       4.370134091   5.082434533   0.000000000
Al      -4.442777717  10.201554111   0.000000000
Al      -2.005205285   9.079183760   0.000000000
Al       2.005366375   9.079265654   0.000000000
Al       8.839978688   2.585790517   0.000000000
Al      11.080091025   1.278808393   0.000000000
Al       6.649129800   6.398210067   0.000000000
Al       8.928013575   5.082357332   0.000000000
Al       4.442894958  10.201513285   0.000000000
Al       6.649041883   9.029637591   0.000000000



     Writing output data file 11al_planar_2x2_vcr.save/
     NEW-OLD atomic charge density approx. for the potential

     negative rho (up, down):  3.533E-06 0.000E+00
     extrapolated charge   50.78994, renormalised to   51.00000

     total cpu time spent up to now is      619.4 secs

     Self-consistent Calculation

     iteration #  1     ecut=    80.00 Ry     beta= 0.40
     Davidson diagonalization with overlap
     ethr =  1.00E-06,  avg # of iterations =  9.0

     negative rho (up, down):  1.954E-06 0.000E+00

     total cpu time spent up to now is      631.3 secs

     total energy              =     -77.18548760 Ry
     Harris-Foulkes estimate   =     -78.20918087 Ry
     estimated scf accuracy    <       0.00950077 Ry

     iteration #  2     ecut=    80.00 Ry     beta= 0.40
     Davidson diagonalization with overlap
     ethr =  1.86E-05,  avg # of iterations = 11.0

     negative rho (up, down):  1.675E-06 0.000E+00

     total cpu time spent up to now is      638.6 secs

     total energy              =     -77.18581684 Ry
     Harris-Foulkes estimate   =     -77.19719571 Ry
     estimated scf accuracy    <       0.06376551 Ry

     iteration #  3     ecut=    80.00 Ry     beta= 0.40
     Davidson diagonalization with overlap
     ethr =  1.86E-05,  avg # of iterations =  4.0

     negative rho (up, down):  1.392E-06 0.000E+00

     total cpu time spent up to now is      644.8 secs

     total energy              =     -77.19035821 Ry
     Harris-Foulkes estimate   =     -77.19072189 Ry
     estimated scf accuracy    <       0.00280494 Ry

     iteration #  4     ecut=    80.00 Ry     beta= 0.40
     Davidson diagonalization with overlap
     ethr =  5.50E-06,  avg # of iterations =  3.0

     negative rho (up, down):  1.084E-06 0.000E+00

     total cpu time spent up to now is      649.8 secs

     total energy              =     -77.19033300 Ry
     Harris-Foulkes estimate   =     -77.19053626 Ry
     estimated scf accuracy    <       0.00158860 Ry

     iteration #  5     ecut=    80.00 Ry     beta= 0.40
     Davidson diagonalization with overlap
     ethr =  3.11E-06,  avg # of iterations =  1.0

     negative rho (up, down):  1.865E-07 0.000E+00

     total cpu time spent up to now is      654.8 secs

     total energy              =     -77.19010209 Ry
     Harris-Foulkes estimate   =     -77.19042827 Ry
     estimated scf accuracy    <       0.00112911 Ry

     iteration #  6     ecut=    80.00 Ry     beta= 0.40
     Davidson diagonalization with overlap
     ethr =  2.21E-06,  avg # of iterations =  4.0

     negative rho (up, down):  5.694E-08 0.000E+00

     total cpu time spent up to now is      660.1 secs

     total energy              =     -77.19024547 Ry
     Harris-Foulkes estimate   =     -77.19038427 Ry
     estimated scf accuracy    <       0.00088555 Ry

     iteration #  7     ecut=    80.00 Ry     beta= 0.40
     Davidson diagonalization with overlap
     ethr =  1.74E-06,  avg # of iterations =  1.0

     negative rho (up, down):  4.621E-08 0.000E+00

     total cpu time spent up to now is      664.6 secs

     total energy              =     -77.19030634 Ry
     Harris-Foulkes estimate   =     -77.19033191 Ry
     estimated scf accuracy    <       0.00013777 Ry

     iteration #  8     ecut=    80.00 Ry     beta= 0.40
     Davidson diagonalization with overlap
     ethr =  2.70E-07,  avg # of iterations =  4.0

     negative rho (up, down):  3.804E-08 0.000E+00

     total cpu time spent up to now is      670.1 secs

     total energy              =     -77.19031393 Ry
     Harris-Foulkes estimate   =     -77.19032694 Ry
     estimated scf accuracy    <       0.00010372 Ry

     iteration #  9     ecut=    80.00 Ry     beta= 0.40
     Davidson diagonalization with overlap
     ethr =  2.03E-07,  avg # of iterations =  1.0

     negative rho (up, down):  1.851E-08 0.000E+00

     total cpu time spent up to now is      674.6 secs

     total energy              =     -77.19030244 Ry
     Harris-Foulkes estimate   =     -77.19031815 Ry
     estimated scf accuracy    <       0.00005774 Ry

     iteration # 10     ecut=    80.00 Ry     beta= 0.40
     Davidson diagonalization with overlap
     ethr =  1.13E-07,  avg # of iterations =  4.0

     negative rho (up, down):  1.437E-08 0.000E+00

     total cpu time spent up to now is      680.1 secs

     total energy              =     -77.19030898 Ry
     Harris-Foulkes estimate   =     -77.19031048 Ry
     estimated scf accuracy    <       0.00000689 Ry

     iteration # 11     ecut=    80.00 Ry     beta= 0.40
     Davidson diagonalization with overlap
     ethr =  1.35E-08,  avg # of iterations = 18.0

     negative rho (up, down):  1.515E-08 0.000E+00

     total cpu time spent up to now is      687.9 secs

     total energy              =     -77.19091258 Ry
     Harris-Foulkes estimate   =     -77.19090802 Ry
     estimated scf accuracy    <       0.00039646 Ry

     iteration # 12     ecut=    80.00 Ry     beta= 0.40
     Davidson diagonalization with overlap
     ethr =  1.35E-08,  avg # of iterations =  1.0

     total cpu time spent up to now is      692.4 secs

     total energy              =     -77.19091936 Ry
     Harris-Foulkes estimate   =     -77.19091275 Ry
     estimated scf accuracy    <       0.00041002 Ry

     iteration # 13     ecut=    80.00 Ry     beta= 0.40
     Davidson diagonalization with overlap
     ethr =  1.35E-08,  avg # of iterations =  1.0

     total cpu time spent up to now is      697.0 secs

     total energy              =     -77.19092491 Ry
     Harris-Foulkes estimate   =     -77.19091961 Ry
     estimated scf accuracy    <       0.00044729 Ry

     iteration # 14     ecut=    80.00 Ry     beta= 0.40
     Davidson diagonalization with overlap
     ethr =  1.35E-08,  avg # of iterations =  1.0

     total cpu time spent up to now is      701.8 secs

     total energy              =     -77.19095081 Ry
     Harris-Foulkes estimate   =     -77.19092501 Ry
     estimated scf accuracy    <       0.00047217 Ry

     iteration # 15     ecut=    80.00 Ry     beta= 0.40
     Davidson diagonalization with overlap
     ethr =  1.35E-08,  avg # of iterations =  4.0

     total cpu time spent up to now is      707.4 secs

     total energy              =     -77.19093516 Ry
     Harris-Foulkes estimate   =     -77.19095223 Ry
     estimated scf accuracy    <       0.00062047 Ry

     iteration # 16     ecut=    80.00 Ry     beta= 0.40
     Davidson diagonalization with overlap
     ethr =  1.35E-08,  avg # of iterations =  1.0

     negative rho (up, down):  1.554E-08 0.000E+00

     total cpu time spent up to now is      712.3 secs

     total energy              =     -77.19087425 Ry
     Harris-Foulkes estimate   =     -77.19093553 Ry
     estimated scf accuracy    <       0.00054904 Ry

     iteration # 17     ecut=    80.00 Ry     beta= 0.40
     Davidson diagonalization with overlap
     ethr =  1.35E-08,  avg # of iterations =  5.0

     negative rho (up, down):  1.555E-08 0.000E+00

     total cpu time spent up to now is      719.5 secs

     total energy              =     -77.19084864 Ry
     Harris-Foulkes estimate   =     -77.19088115 Ry
     estimated scf accuracy    <       0.00026515 Ry

     iteration # 18     ecut=    80.00 Ry     beta= 0.40
     Davidson diagonalization with overlap
     ethr =  1.35E-08,  avg # of iterations =  4.0

     negative rho (up, down):  1.108E-08 0.000E+00

     total cpu time spent up to now is      726.5 secs

     total energy              =     -77.19085828 Ry
     Harris-Foulkes estimate   =     -77.19085254 Ry
     estimated scf accuracy    <       0.00011682 Ry

     iteration # 19     ecut=    80.00 Ry     beta= 0.40
     Davidson diagonalization with overlap
     ethr =  1.35E-08,  avg # of iterations =  1.0

     total cpu time spent up to now is      731.3 secs

     total energy              =     -77.19081278 Ry
     Harris-Foulkes estimate   =     -77.19085895 Ry
     estimated scf accuracy    <       0.00013791 Ry

     iteration # 20     ecut=    80.00 Ry     beta= 0.40
     Davidson diagonalization with overlap
     ethr =  1.35E-08,  avg # of iterations =  6.0

     total cpu time spent up to now is      739.4 secs

     total energy              =     -77.19082926 Ry
     Harris-Foulkes estimate   =     -77.19082986 Ry
     estimated scf accuracy    <       0.00000286 Ry

     iteration # 21     ecut=    80.00 Ry     beta= 0.40
     Davidson diagonalization with overlap
     ethr =  5.60E-09,  avg # of iterations =  3.0

     total cpu time spent up to now is      744.3 secs

     End of self-consistent calculation

          k = 0.0000 0.0000 0.0000 (252395 PWs)   bands (ev):

    -9.9941  -9.1255  -9.1253  -9.1015  -8.9848  -8.9846  -8.4032  -7.4898
    -7.4331  -7.4329  -6.8939  -5.8299  -5.7779  -5.7778  -5.6606  -5.6604
    -4.8360  -4.8359  -4.1083  -3.9932  -3.3115  -3.2023  -3.2020  -3.1162
    -3.1160  -3.1044  -3.0914  -3.0426  -3.0424  -2.6454  -2.6452

     the Fermi energy is    -3.0631 ev

!    total energy              =     -77.19082921 Ry
     Harris-Foulkes estimate   =     -77.19082959 Ry
     estimated scf accuracy    <       0.00000051 Ry

     The total energy is the sum of the following terms:

     one-electron contribution =    -270.30431378 Ry
     hartree contribution      =     139.77465325 Ry
     xc contribution           =     -33.43107217 Ry
     ewald contribution        =      86.88100541 Ry
     smearing contrib. (-TS)   =      -0.11110191 Ry

     convergence has been achieved in  21 iterations

     Forces acting on atoms (cartesian axes, Ry/au):

     atom    1 type  1   force =    -0.00004300   -0.00000410    0.00000000
     atom    2 type  1   force =     0.00484094   -0.00282842    0.00000000
     atom    3 type  1   force =     0.01103898   -0.01651187    0.00000000
     atom    4 type  1   force =    -0.00000327   -0.01054934    0.00000000
     atom    5 type  1   force =     0.00874348    0.01782959    0.00000000
     atom    6 type  1   force =     0.00001193    0.00555544    0.00000000
     atom    7 type  1   force =    -0.00878763    0.01783605    0.00000000
     atom    8 type  1   force =     0.01121703    0.00646618    0.00000000
     atom    9 type  1   force =     0.01981087   -0.00131168    0.00000000
     atom   10 type  1   force =     0.00912000    0.00527352    0.00000000
     atom   11 type  1   force =    -0.00913093    0.00527602    0.00000000
     atom   12 type  1   force =    -0.01105649   -0.01651339    0.00000000
     atom   13 type  1   force =    -0.00478521   -0.00282957    0.00000000
     atom   14 type  1   force =    -0.00001094    0.00001744    0.00000000
     atom   15 type  1   force =    -0.01116766    0.00648966    0.00000000
     atom   16 type  1   force =    -0.01982921   -0.00127378    0.00000000
     atom   17 type  1   force =     0.00003110   -0.01292175    0.00000000

     Total force =     0.057413     Total SCF correction =     0.000546


     Computing stress (Cartesian axis) and pressure

          total   stress  (Ry/bohr**3)                   (kbar)     P=   -1.91
  -0.00001952  -0.00000001   0.00000000         -2.87     -0.00      0.00
  -0.00000001  -0.00001952   0.00000000         -0.00     -2.87      0.00
   0.00000000   0.00000000  -0.00000000          0.00      0.00     -0.00


     number of scf cycles    =   7
     number of bfgs steps    =   6

     enthalpy old            =     -77.1828708462 Ry
     enthalpy new            =     -77.1908292123 Ry

     CASE: enthalpy_new < enthalpy_old

     new trust radius        =       0.2524780789 bohr
     new conv_thr            =       0.0000010000 Ry

     new unit-cell volume =  20527.96663 a.u.^3 (  3041.93077 Ang^3 )
     density =      0.27823 g/cm^3

CELL_PARAMETERS (alat= 25.26072511)
   0.991394625   0.000002776   0.000000000
  -0.495694908   0.858574885   0.000000000
   0.000000000   0.000000000   1.496177267

ATOMIC_POSITIONS (angstrom)
Al       0.000123885   2.550472755   0.000000000
Al       2.214523433   1.271986589   0.000000000
Al       4.463516496   2.578272914   0.000000000
Al       6.626357110   0.899227319   0.000000000
Al      -2.255627176   6.402299462   0.000000000
Al       0.000091780   5.107686084   0.000000000
Al       2.255875280   6.402365766   0.000000000
Al       4.329793988   5.050384945   0.000000000
Al      -4.418349133  10.147844255   0.000000000
Al      -1.883000165   9.114472177   0.000000000
Al       1.883186850   9.114610779   0.000000000
Al       8.788981222   2.578292407   0.000000000
Al      11.037689831   1.271984292   0.000000000
Al       6.626257163   6.376245641   0.000000000
Al       8.922577178   5.050252966   0.000000000
Al       4.418463825  10.147799597   0.000000000
Al       6.626128057   9.027754238   0.000000000



     Writing output data file 11al_planar_2x2_vcr.save/
     NEW-OLD atomic charge density approx. for the potential

     negative rho (up, down):  7.398E-06 0.000E+00
     extrapolated charge   50.64757, renormalised to   51.00000

     total cpu time spent up to now is      783.0 secs

     Self-consistent Calculation

     iteration #  1     ecut=    80.00 Ry     beta= 0.40
     Davidson diagonalization with overlap
     ethr =  1.00E-06,  avg # of iterations = 10.0

     negative rho (up, down):  4.200E-06 0.000E+00

     total cpu time spent up to now is      795.5 secs

     total energy              =     -77.18616742 Ry
     Harris-Foulkes estimate   =     -78.91242908 Ry
     estimated scf accuracy    <       0.01999644 Ry

     iteration #  2     ecut=    80.00 Ry     beta= 0.40
     Davidson diagonalization with overlap
     ethr =  3.92E-05,  avg # of iterations =  9.0

     negative rho (up, down):  3.594E-06 0.000E+00

     total cpu time spent up to now is      802.9 secs

     total energy              =     -77.18816557 Ry
     Harris-Foulkes estimate   =     -77.21689497 Ry
     estimated scf accuracy    <       0.17608512 Ry

     iteration #  3     ecut=    80.00 Ry     beta= 0.40
     Davidson diagonalization with overlap
     ethr =  3.92E-05,  avg # of iterations =  4.0

     negative rho (up, down):  2.989E-06 0.000E+00

     total cpu time spent up to now is      809.0 secs

     total energy              =     -77.19959754 Ry
     Harris-Foulkes estimate   =     -77.20021861 Ry
     estimated scf accuracy    <       0.00675490 Ry

     iteration #  4     ecut=    80.00 Ry     beta= 0.40
     Davidson diagonalization with overlap
     ethr =  1.32E-05,  avg # of iterations =  3.0

     negative rho (up, down):  1.721E-06 0.000E+00

     total cpu time spent up to now is      814.0 secs

     total energy              =     -77.19898908 Ry
     Harris-Foulkes estimate   =     -77.19979685 Ry
     estimated scf accuracy    <       0.00454033 Ry

     iteration #  5     ecut=    80.00 Ry     beta= 0.40
     Davidson diagonalization with overlap
     ethr =  8.90E-06,  avg # of iterations =  1.0

     negative rho (up, down):  2.116E-07 0.000E+00

     total cpu time spent up to now is      818.9 secs

     total energy              =     -77.19856789 Ry
     Harris-Foulkes estimate   =     -77.19939884 Ry
     estimated scf accuracy    <       0.00335491 Ry

     iteration #  6     ecut=    80.00 Ry     beta= 0.40
     Davidson diagonalization with overlap
     ethr =  6.58E-06,  avg # of iterations =  4.0

     negative rho (up, down):  1.463E-07 0.000E+00

     total cpu time spent up to now is      824.4 secs

     total energy              =     -77.19909322 Ry
     Harris-Foulkes estimate   =     -77.19915778 Ry
     estimated scf accuracy    <       0.00039315 Ry

     iteration #  7     ecut=    80.00 Ry     beta= 0.40
     Davidson diagonalization with overlap
     ethr =  7.71E-07,  avg # of iterations =  5.0

     negative rho (up, down):  1.184E-07 0.000E+00

     total cpu time spent up to now is      831.1 secs

     total energy              =     -77.19914315 Ry
     Harris-Foulkes estimate   =     -77.19922211 Ry
     estimated scf accuracy    <       0.00055983 Ry

     iteration #  8     ecut=    80.00 Ry     beta= 0.40
     Davidson diagonalization with overlap
     ethr =  7.71E-07,  avg # of iterations =  1.0

     negative rho (up, down):  5.152E-08 0.000E+00

     total cpu time spent up to now is      835.6 secs

     total energy              =     -77.19909892 Ry
     Harris-Foulkes estimate   =     -77.19915780 Ry
     estimated scf accuracy    <       0.00023741 Ry

     iteration #  9     ecut=    80.00 Ry     beta= 0.40
     Davidson diagonalization with overlap
     ethr =  4.66E-07,  avg # of iterations =  3.0

     negative rho (up, down):  4.181E-08 0.000E+00

     total cpu time spent up to now is      840.6 secs

     total energy              =     -77.19912663 Ry
     Harris-Foulkes estimate   =     -77.19912836 Ry
     estimated scf accuracy    <       0.00000963 Ry

     iteration # 10     ecut=    80.00 Ry     beta= 0.40
     Davidson diagonalization with overlap
     ethr =  1.89E-08,  avg # of iterations = 18.0

     negative rho (up, down):  5.145E-08 0.000E+00

     total cpu time spent up to now is      848.5 secs

     total energy              =     -77.19923298 Ry
     Harris-Foulkes estimate   =     -77.19923897 Ry
     estimated scf accuracy    <       0.00055542 Ry

     iteration # 11     ecut=    80.00 Ry     beta= 0.40
     Davidson diagonalization with overlap
     ethr =  1.89E-08,  avg # of iterations =  2.0

     negative rho (up, down):  3.948E-08 0.000E+00

     total cpu time spent up to now is      853.2 secs

     total energy              =     -77.19922076 Ry
     Harris-Foulkes estimate   =     -77.19923401 Ry
     estimated scf accuracy    <       0.00053449 Ry

     iteration # 12     ecut=    80.00 Ry     beta= 0.40
     Davidson diagonalization with overlap
     ethr =  1.89E-08,  avg # of iterations =  1.0

     negative rho (up, down):  1.361E-08 0.000E+00

     total cpu time spent up to now is      858.1 secs

     total energy              =     -77.19920340 Ry
     Harris-Foulkes estimate   =     -77.19922152 Ry
     estimated scf accuracy    <       0.00048130 Ry

     iteration # 13     ecut=    80.00 Ry     beta= 0.40
     Davidson diagonalization with overlap
     ethr =  1.89E-08,  avg # of iterations =  3.0

     negative rho (up, down):  3.370E-08 0.000E+00

     total cpu time spent up to now is      862.8 secs

     total energy              =     -77.19919643 Ry
     Harris-Foulkes estimate   =     -77.19920454 Ry
     estimated scf accuracy    <       0.00038905 Ry

     iteration # 14     ecut=    80.00 Ry     beta= 0.40
     Davidson diagonalization with overlap
     ethr =  1.89E-08,  avg # of iterations =  1.0

     negative rho (up, down):  2.119E-08 0.000E+00

     total cpu time spent up to now is      867.2 secs

     total energy              =     -77.19917761 Ry
     Harris-Foulkes estimate   =     -77.19919700 Ry
     estimated scf accuracy    <       0.00035747 Ry

     iteration # 15     ecut=    80.00 Ry     beta= 0.40
     Davidson diagonalization with overlap
     ethr =  1.89E-08,  avg # of iterations =  3.0

     total cpu time spent up to now is      872.2 secs

     total energy              =     -77.19916683 Ry
     Harris-Foulkes estimate   =     -77.19917901 Ry
     estimated scf accuracy    <       0.00025276 Ry

     iteration # 16     ecut=    80.00 Ry     beta= 0.40
     Davidson diagonalization with overlap
     ethr =  1.89E-08,  avg # of iterations =  1.0

     total cpu time spent up to now is      877.2 secs

     total energy              =     -77.19914997 Ry
     Harris-Foulkes estimate   =     -77.19916754 Ry
     estimated scf accuracy    <       0.00020348 Ry

     iteration # 17     ecut=    80.00 Ry     beta= 0.40
     Davidson diagonalization with overlap
     ethr =  1.89E-08,  avg # of iterations =  4.0

     total cpu time spent up to now is      883.2 secs

     total energy              =     -77.19914050 Ry
     Harris-Foulkes estimate   =     -77.19915216 Ry
     estimated scf accuracy    <       0.00011133 Ry

     iteration # 18     ecut=    80.00 Ry     beta= 0.40
     Davidson diagonalization with overlap
     ethr =  1.89E-08,  avg # of iterations =  3.0

     negative rho (up, down):  1.178E-08 0.000E+00

     total cpu time spent up to now is      888.3 secs

     total energy              =     -77.19912503 Ry
     Harris-Foulkes estimate   =     -77.19914170 Ry
     estimated scf accuracy    <       0.00005809 Ry

     iteration # 19     ecut=    80.00 Ry     beta= 0.40
     Davidson diagonalization with overlap
     ethr =  1.89E-08,  avg # of iterations =  5.0

     total cpu time spent up to now is      896.2 secs

     total energy              =     -77.19913243 Ry
     Harris-Foulkes estimate   =     -77.19913255 Ry
     estimated scf accuracy    <       0.00000110 Ry

     iteration # 20     ecut=    80.00 Ry     beta= 0.40
     Davidson diagonalization with overlap
     ethr =  2.16E-09,  avg # of iterations =  3.0

     total cpu time spent up to now is      902.9 secs

     End of self-consistent calculation

          k = 0.0000 0.0000 0.0000 (252395 PWs)   bands (ev):

   -10.0310  -9.1751  -9.1706  -9.1069  -8.9876  -8.9863  -8.4884  -7.5049
    -7.4385  -7.4354  -7.0309  -5.8335  -5.8019  -5.8010  -5.6940  -5.6881
    -4.9032  -4.9014  -4.4670  -4.0162  -3.3587  -3.1879  -3.1854  -3.1424
    -3.1398  -3.0846  -3.0377  -3.0374  -3.0236  -2.6943  -2.6414

     the Fermi energy is    -3.0596 ev

!    total energy              =     -77.19913237 Ry
     Harris-Foulkes estimate   =     -77.19913266 Ry
     estimated scf accuracy    <       0.00000046 Ry

     The total energy is the sum of the following terms:

     one-electron contribution =    -271.24131472 Ry
     hartree contribution      =     140.13963472 Ry
     xc contribution           =     -33.38059351 Ry
     ewald contribution        =      87.39811720 Ry
     smearing contrib. (-TS)   =      -0.11497606 Ry

     convergence has been achieved in  20 iterations

     Forces acting on atoms (cartesian axes, Ry/au):

     atom    1 type  1   force =     0.00018075   -0.00196654    0.00000000
     atom    2 type  1   force =     0.00593924   -0.00234641    0.00000000
     atom    3 type  1   force =     0.01395075   -0.02590204    0.00000000
     atom    4 type  1   force =    -0.00005669   -0.00387236    0.00000000
     atom    5 type  1   force =     0.01490719    0.02488314    0.00000000
     atom    6 type  1   force =    -0.00011590    0.00800979    0.00000000
     atom    7 type  1   force =    -0.01476021    0.02499203    0.00000000
     atom    8 type  1   force =     0.01780907    0.01064637    0.00000000
     atom    9 type  1   force =     0.02894483   -0.00050764    0.00000000
     atom   10 type  1   force =     0.00289856    0.00214556    0.00000000
     atom   11 type  1   force =    -0.00285930    0.00205058    0.00000000
     atom   12 type  1   force =    -0.01385085   -0.02600027    0.00000000
     atom   13 type  1   force =    -0.00613639   -0.00233126    0.00000000
     atom   14 type  1   force =     0.00010660   -0.00095627    0.00000000
     atom   15 type  1   force =    -0.01799905    0.01077972    0.00000000
     atom   16 type  1   force =    -0.02895272   -0.00055775    0.00000000
     atom   17 type  1   force =    -0.00000588   -0.01906666    0.00000000

     Total force =     0.080755     Total SCF correction =     0.000486


     Computing stress (Cartesian axis) and pressure

          total   stress  (Ry/bohr**3)                   (kbar)     P=   -2.52
  -0.00002464  -0.00000015   0.00000000         -3.62     -0.02      0.00
  -0.00000015  -0.00002684   0.00000000         -0.02     -3.95      0.00
   0.00000000   0.00000000   0.00000000          0.00      0.00      0.00


     number of scf cycles    =   8
     number of bfgs steps    =   7

     enthalpy old            =     -77.1908292123 Ry
     enthalpy new            =     -77.1991323728 Ry

     CASE: enthalpy_new < enthalpy_old

     new trust radius        =       0.3774145994 bohr
     new conv_thr            =       0.0000010000 Ry

[...]

     iteration #  3     ecut=    80.00 Ry     beta= 0.40
     Davidson diagonalization with overlap
     ethr =  1.74E-10,  avg # of iterations =  3.0

     total cpu time spent up to now is    17013.6 secs

     End of self-consistent calculation

          k = 0.0000 0.0000 0.0000 (252395 PWs)   bands (ev):

   -11.3233 -10.4665 -10.2424  -9.6568  -9.4869  -9.1146  -8.7459  -7.7736
    -7.6668  -6.8152  -6.3234  -6.1315  -6.1221  -6.0433  -6.0419  -4.9625
    -4.8817  -4.6774  -4.3596  -4.2013  -3.9511  -3.7320  -3.6007  -3.2072
    -3.2037  -3.0294  -2.8242  -2.5238  -2.3417  -1.4807  -1.2612

     the Fermi energy is    -2.9857 ev

!    total energy              =     -77.81466953 Ry
     Harris-Foulkes estimate   =     -77.81466954 Ry
     estimated scf accuracy    <          3.7E-09 Ry

     The total energy is the sum of the following terms:

     one-electron contribution =    -352.34377153 Ry
     hartree contribution      =     181.09963343 Ry
     xc contribution           =     -34.71242650 Ry
     ewald contribution        =     128.16179659 Ry
     smearing contrib. (-TS)   =      -0.01990152 Ry

     convergence has been achieved in   3 iterations

     Forces acting on atoms (cartesian axes, Ry/au):

     atom    1 type  1   force =     0.00000381    0.00000387    0.00000000
     atom    2 type  1   force =    -0.00000361   -0.00000060    0.00000000
     atom    3 type  1   force =     0.00000761   -0.00000404    0.00000000
     atom    4 type  1   force =     0.00000463    0.00000661    0.00000000
     atom    5 type  1   force =    -0.00000483   -0.00000773    0.00000000
     atom    6 type  1   force =    -0.00000318    0.00000267    0.00000000
     atom    7 type  1   force =    -0.00000393    0.00000723    0.00000000
     atom    8 type  1   force =    -0.00000603    0.00000328    0.00000000
     atom    9 type  1   force =    -0.00000214    0.00000013    0.00000000
     atom   10 type  1   force =     0.00000466   -0.00000106    0.00000000
     atom   11 type  1   force =    -0.00000016   -0.00000193    0.00000000
     atom   12 type  1   force =     0.00000173   -0.00000088    0.00000000
     atom   13 type  1   force =    -0.00000040   -0.00000182    0.00000000
     atom   14 type  1   force =     0.00000213   -0.00000263    0.00000000
     atom   15 type  1   force =    -0.00000452   -0.00000661    0.00000000
     atom   16 type  1   force =     0.00000202    0.00000336    0.00000000
     atom   17 type  1   force =     0.00000220    0.00000015    0.00000000

     Total force =     0.000023     Total SCF correction =     0.000058
     SCF correction compared to forces is large: reduce conv_thr to get better values


     Computing stress (Cartesian axis) and pressure

          total   stress  (Ry/bohr**3)                   (kbar)     P=   -0.00
  -0.00000000  -0.00000000   0.00000000         -0.00     -0.00      0.00
  -0.00000000   0.00000000   0.00000000         -0.00      0.00      0.00
   0.00000000   0.00000000  -0.00000000          0.00      0.00     -0.00


     bfgs converged in 175 scf cycles and 170 bfgs steps
     (criteria: energy <  1.0E-05 Ry, force <  1.0E-04Ry/Bohr, cell <  5.0E-05kbar)

     End of BFGS Geometry Optimization

     Final enthalpy =     -77.8146695320 Ry
Begin final coordinates
     new unit-cell volume =  15817.85377 a.u.^3 (  2343.96407 Ang^3 )
     density =      0.36108 g/cm^3

CELL_PARAMETERS (alat= 25.26072511)
   0.960872822  -0.000414210   0.000000000
  -0.480077666   0.682798891   0.000000000
   0.000000000   0.000000000   1.496177267

ATOMIC_POSITIONS (angstrom)
Al       0.001365877   2.743205137   0.000000000
Al       1.933848597   0.501066802   0.000000000
Al       4.260815022   1.494595100   0.000000000
Al       6.422113989   0.164567998   0.000000000
Al      -1.930831769   4.985732743   0.000000000
Al       0.004035979   6.635478962   0.000000000
Al       1.936497783   4.982707940   0.000000000
Al       4.263200789   3.988088884   0.000000000
Al      -4.216298299   6.616286091   0.000000000
Al      -2.198109590   7.997747101   0.000000000
Al       2.206886767   7.996456975   0.000000000
Al       8.584163226   1.493143128   0.000000000
Al      10.910751843   0.498253151   0.000000000
Al       6.425221581   5.316643142   0.000000000
Al       8.586551356   3.986675066   0.000000000
Al       4.223045498   6.611989232   0.000000000
Al       6.425959595   7.972979488   0.000000000
End final coordinates



     Writing output data file 11al_planar_2x2_vcr.save/

     A final scf calculation at the relaxed structure.
     The G-vectors are recalculated for the final unit cell
     Results may differ from those at the preceding step.
 
     Parallelization info
     --------------------
     sticks:   dense  smooth     PW     G-vecs:    dense   smooth      PW
     Min        1332    1332    332               191126   191126   23888
     Max        1333    1333    333               191129   191129   23891
     Sum       10661   10661   2663              1529015  1529015  191117
 


     bravais-lattice index     =            4
     lattice parameter (alat)  =      25.2607  a.u.
     unit-cell volume          =   15817.8538 (a.u.)^3
     number of atoms/cell      =           17
     number of atomic types    =            1
     number of electrons       =        51.00
     number of Kohn-Sham states=           31
     kinetic-energy cutoff     =      80.0000  Ry
     charge density cutoff     =     320.0000  Ry
     convergence threshold     =      1.0E-08
     mixing beta               =       0.4000
     number of iterations used =            8  plain     mixing
     Exchange-correlation      = PBE ( 1  4  3  4 0 0)

     celldm(1)=  25.260725  celldm(2)=   0.000000  celldm(3)=   1.496177
     celldm(4)=   0.000000  celldm(5)=   0.000000  celldm(6)=   0.000000

     crystal axes: (cart. coord. in units of alat)
               a(1) = (   0.960873  -0.000414   0.000000 )  
               a(2) = (  -0.480078   0.682799   0.000000 )  
               a(3) = (   0.000000   0.000000   1.496177 )  

     reciprocal axes: (cart. coord. in units 2 pi/alat)
               b(1) = (  1.041036  0.731955  0.000000 )  
               b(2) = (  0.000632  1.465004  0.000000 )  
               b(3) = (  0.000000  0.000000  0.668370 )  


     PseudoPot. # 1 for Al read from file:
     ./Al.upf
     MD5 check sum: 4974d48a734c9d7d1eb6780a1419d19d
     Pseudo is Norm-conserving + core correction, Zval =  3.0
     Generated using ONCVPSP code by D. R. Hamann
     Using radial grid of 1876 points,  6 beta functions with: 
                l(1) =   0
                l(2) =   0
                l(3) =   1
                l(4) =   1
                l(5) =   2
                l(6) =   2

     atomic species   valence    mass     pseudopotential
        Al             3.00    29.98200     Al( 1.00)

      2 Sym. Ops. (no inversion) found



   Cartesian axes

     site n.     atom                  positions (alat units)
         1           Al  tau(   1) = (   0.0001022   0.2052161   0.0000000  )
         2           Al  tau(   2) = (   0.1446690   0.0374842   0.0000000  )
         3           Al  tau(   3) = (   0.3187467   0.1118090   0.0000000  )
         4           Al  tau(   4) = (   0.4804310   0.0123111   0.0000000  )
         5           Al  tau(   5) = (  -0.1444433   0.3729770   0.0000000  )
         6           Al  tau(   6) = (   0.0003019   0.4963926   0.0000000  )
         7           Al  tau(   7) = (   0.1448672   0.3727507   0.0000000  )
         8           Al  tau(   8) = (   0.3189252   0.2983444   0.0000000  )
         9           Al  tau(   9) = (  -0.3154165   0.4949568   0.0000000  )
        10           Al  tau(  10) = (  -0.1644381   0.5983024   0.0000000  )
        11           Al  tau(  11) = (   0.1650947   0.5982059   0.0000000  )
        12           Al  tau(  12) = (   0.6421715   0.1117003   0.0000000  )
        13           Al  tau(  13) = (   0.8162209   0.0372738   0.0000000  )
        14           Al  tau(  14) = (   0.4806635   0.3977320   0.0000000  )
        15           Al  tau(  15) = (   0.6423501   0.2982386   0.0000000  )
        16           Al  tau(  16) = (   0.3159212   0.4946354   0.0000000  )
        17           Al  tau(  17) = (   0.4807187   0.5964495   0.0000000  )

     number of k points=     1  Methfessel-Paxton smearing, width (Ry)=  0.0500
                       cart. coord. in units 2pi/alat
        k(    1) = (   0.0000000   0.0000000   0.0000000), wk =   2.0000000

     Dense  grid:  1529015 G-vectors     FFT dimensions: ( 144, 125, 216)

     Estimated max dynamical RAM per process >     340.41 MB

     Estimated total dynamical RAM >       2.66 GB

     Initial potential from superposition of free atoms

     starting charge   50.95840, renormalised to   51.00000

     negative rho (up, down):  4.106E-05 0.000E+00
     Starting wfcs are   68 randomized atomic wfcs

     total cpu time spent up to now is    17049.5 secs

     Self-consistent Calculation

     iteration #  1     ecut=    80.00 Ry     beta= 0.40
     Davidson diagonalization with overlap
     c_bands:  1 eigenvalues not converged
     ethr =  1.00E-06,  avg # of iterations = 20.0

     negative rho (up, down):  8.007E-06 0.000E+00

     total cpu time spent up to now is    17068.4 secs

     total energy              =     -77.65699004 Ry
     Harris-Foulkes estimate   =     -78.03745432 Ry
     estimated scf accuracy    <       0.88299443 Ry

     iteration #  2     ecut=    80.00 Ry     beta= 0.40
     Davidson diagonalization with overlap
     ethr =  1.73E-03,  avg # of iterations =  3.0

     negative rho (up, down):  4.118E-06 0.000E+00

     total cpu time spent up to now is    17074.5 secs

     total energy              =     -77.67302850 Ry
     Harris-Foulkes estimate   =     -77.94401754 Ry
     estimated scf accuracy    <       0.87279591 Ry

     iteration #  3     ecut=    80.00 Ry     beta= 0.40
     Davidson diagonalization with overlap
     ethr =  1.71E-03,  avg # of iterations =  3.0

     negative rho (up, down):  1.146E-06 0.000E+00

     total cpu time spent up to now is    17080.2 secs

     total energy              =     -77.80100161 Ry
     Harris-Foulkes estimate   =     -77.82618140 Ry
     estimated scf accuracy    <       0.08265857 Ry

     iteration #  4     ecut=    80.00 Ry     beta= 0.40
     Davidson diagonalization with overlap
     ethr =  1.62E-04,  avg # of iterations =  3.0

     negative rho (up, down):  7.638E-07 0.000E+00

     total cpu time spent up to now is    17087.2 secs

     total energy              =     -77.80993326 Ry
     Harris-Foulkes estimate   =     -77.82274078 Ry
     estimated scf accuracy    <       0.05327821 Ry

     iteration #  5     ecut=    80.00 Ry     beta= 0.40
     Davidson diagonalization with overlap
     ethr =  1.04E-04,  avg # of iterations =  2.0

     negative rho (up, down):  2.425E-07 0.000E+00

     total cpu time spent up to now is    17094.5 secs

     total energy              =     -77.81202150 Ry
     Harris-Foulkes estimate   =     -77.81495891 Ry
     estimated scf accuracy    <       0.00959144 Ry

     iteration #  6     ecut=    80.00 Ry     beta= 0.40
     Davidson diagonalization with overlap
     ethr =  1.88E-05,  avg # of iterations =  3.0

     negative rho (up, down):  3.340E-08 0.000E+00

     total cpu time spent up to now is    17102.8 secs

     total energy              =     -77.81415302 Ry
     Harris-Foulkes estimate   =     -77.81506435 Ry
     estimated scf accuracy    <       0.00369988 Ry

     iteration #  7     ecut=    80.00 Ry     beta= 0.40
     Davidson diagonalization with overlap
     ethr =  7.25E-06,  avg # of iterations =  2.0

     total cpu time spent up to now is    17109.8 secs

     total energy              =     -77.81443262 Ry
     Harris-Foulkes estimate   =     -77.81453853 Ry
     estimated scf accuracy    <       0.00044162 Ry

     iteration #  8     ecut=    80.00 Ry     beta= 0.40
     Davidson diagonalization with overlap
     ethr =  8.66E-07,  avg # of iterations =  4.0

     total cpu time spent up to now is    17118.4 secs

     total energy              =     -77.81455412 Ry
     Harris-Foulkes estimate   =     -77.81456513 Ry
     estimated scf accuracy    <       0.00005178 Ry

     iteration #  9     ecut=    80.00 Ry     beta= 0.40
     Davidson diagonalization with overlap
     ethr =  1.02E-07,  avg # of iterations =  3.0

     total cpu time spent up to now is    17123.9 secs

     total energy              =     -77.81455616 Ry
     Harris-Foulkes estimate   =     -77.81456155 Ry
     estimated scf accuracy    <       0.00001359 Ry

     iteration # 10     ecut=    80.00 Ry     beta= 0.40
     Davidson diagonalization with overlap
     ethr =  2.67E-08,  avg # of iterations =  4.0

     total cpu time spent up to now is    17130.1 secs

     total energy              =     -77.81456091 Ry
     Harris-Foulkes estimate   =     -77.81456254 Ry
     estimated scf accuracy    <       0.00001208 Ry

     iteration # 11     ecut=    80.00 Ry     beta= 0.40
     Davidson diagonalization with overlap
     ethr =  2.37E-08,  avg # of iterations =  1.0

     total cpu time spent up to now is    17134.6 secs

     total energy              =     -77.81455978 Ry
     Harris-Foulkes estimate   =     -77.81456144 Ry
     estimated scf accuracy    <       0.00000595 Ry

     iteration # 12     ecut=    80.00 Ry     beta= 0.40
     Davidson diagonalization with overlap
     ethr =  1.17E-08,  avg # of iterations =  3.0

     total cpu time spent up to now is    17140.3 secs

     total energy              =     -77.81456073 Ry
     Harris-Foulkes estimate   =     -77.81456078 Ry
     estimated scf accuracy    <       0.00000017 Ry

     iteration # 13     ecut=    80.00 Ry     beta= 0.40
     Davidson diagonalization with overlap
     ethr =  3.33E-10,  avg # of iterations =  5.0

     total cpu time spent up to now is    17148.9 secs

     total energy              =     -77.81456076 Ry
     Harris-Foulkes estimate   =     -77.81456081 Ry
     estimated scf accuracy    <       0.00000013 Ry

     iteration # 14     ecut=    80.00 Ry     beta= 0.40
     Davidson diagonalization with overlap
     ethr =  2.58E-10,  avg # of iterations =  2.0

     total cpu time spent up to now is    17155.0 secs

     total energy              =     -77.81456078 Ry
     Harris-Foulkes estimate   =     -77.81456079 Ry
     estimated scf accuracy    <       0.00000002 Ry

     iteration # 15     ecut=    80.00 Ry     beta= 0.40
     Davidson diagonalization with overlap
     ethr =  4.63E-11,  avg # of iterations =  2.0

     total cpu time spent up to now is    17160.8 secs

     End of self-consistent calculation

          k = 0.0000 0.0000 0.0000 (191117 PWs)   bands (ev):

   -11.3235 -10.4667 -10.2425  -9.6571  -9.4871  -9.1148  -8.7461  -7.7737
    -7.6670  -6.8154  -6.3237  -6.1318  -6.1223  -6.0435  -6.0421  -4.9627
    -4.8819  -4.6775  -4.3598  -4.2014  -3.9513  -3.7321  -3.6008  -3.2074
    -3.2039  -3.0295  -2.8244  -2.5240  -2.3418  -1.4809  -1.1553

     the Fermi energy is    -2.9859 ev

!    total energy              =     -77.81456077 Ry
     Harris-Foulkes estimate   =     -77.81456078 Ry
     estimated scf accuracy    <          4.1E-09 Ry

     The total energy is the sum of the following terms:

     one-electron contribution =    -352.34277234 Ry
     hartree contribution      =     181.09879345 Ry
     xc contribution           =     -34.71234256 Ry
     ewald contribution        =     128.16179659 Ry
     smearing contrib. (-TS)   =      -0.02003591 Ry

     convergence has been achieved in  15 iterations

     Forces acting on atoms (cartesian axes, Ry/au):

     atom    1 type  1   force =     0.00000163    0.00000352    0.00000000
     atom    2 type  1   force =    -0.00001120   -0.00000966    0.00000000
     atom    3 type  1   force =     0.00000818   -0.00001695    0.00000000
     atom    4 type  1   force =     0.00000696    0.00001015    0.00000000
     atom    5 type  1   force =    -0.00000067    0.00000057    0.00000000
     atom    6 type  1   force =    -0.00000552   -0.00000338    0.00000000
     atom    7 type  1   force =    -0.00000981    0.00001323    0.00000000
     atom    8 type  1   force =    -0.00000476    0.00001871    0.00000000
     atom    9 type  1   force =    -0.00000766    0.00001203    0.00000000
     atom   10 type  1   force =     0.00000797   -0.00001784    0.00000000
     atom   11 type  1   force =    -0.00000526   -0.00001407    0.00000000
     atom   12 type  1   force =     0.00000244   -0.00001348    0.00000000
     atom   13 type  1   force =     0.00000530   -0.00000841    0.00000000
     atom   14 type  1   force =     0.00000438   -0.00000637    0.00000000
     atom   15 type  1   force =    -0.00000332    0.00001010    0.00000000
     atom   16 type  1   force =     0.00000897    0.00001682    0.00000000
     atom   17 type  1   force =     0.00000236    0.00000503    0.00000000

     Total force =     0.000056     Total SCF correction =     0.000056
     SCF correction compared to forces is large: reduce conv_thr to get better values


     Computing stress (Cartesian axis) and pressure

          total   stress  (Ry/bohr**3)                   (kbar)     P=   -0.00
   0.00000003  -0.00000000   0.00000000          0.00     -0.00      0.00
  -0.00000000  -0.00000005   0.00000000         -0.00     -0.01      0.00
   0.00000000   0.00000000  -0.00000001          0.00      0.00     -0.00


     Writing output data file 11al_planar_2x2_vcr.save/
 
     init_run     :     20.91s CPU     22.16s WALL (       2 calls)
     electrons    :   9965.90s CPU  10191.77s WALL (     176 calls)
     update_pot   :   2273.55s CPU   2290.15s WALL (     174 calls)
     forces       :   1438.24s CPU   1456.90s WALL (     176 calls)
     stress       :   3107.41s CPU   3154.26s WALL (     176 calls)

     Called by init_run:
     wfcinit      :      5.72s CPU      6.67s WALL (       2 calls)
     potinit      :      5.48s CPU      5.62s WALL (       2 calls)
     hinit0       :      8.24s CPU      8.34s WALL (       2 calls)

     Called by electrons:
     c_bands      :   7869.24s CPU   7959.61s WALL (    1530 calls)
     sum_band     :   1120.51s CPU   1133.91s WALL (    1530 calls)
     v_of_rho     :    867.71s CPU    943.74s WALL (    1641 calls)
     mix_rho      :    140.20s CPU    176.65s WALL (    1530 calls)

     Called by c_bands:
     init_us_2    :    128.02s CPU    129.12s WALL (    3062 calls)
     cegterg      :   6435.46s CPU   6518.92s WALL (    1530 calls)

     Called by sum_band:

     Called by *egterg:
     h_psi        :   5697.70s CPU   5765.45s WALL (    6893 calls)
     g_psi        :     32.87s CPU     33.30s WALL (    5361 calls)
     cdiaghg      :     16.68s CPU     16.93s WALL (    6652 calls)

     Called by h_psi:
     h_psi:pot    :   5687.54s CPU   5743.47s WALL (    6893 calls)
     h_psi:calbec :    728.32s CPU    730.79s WALL (    6893 calls)
     vloc_psi     :   4265.40s CPU   4317.32s WALL (    6893 calls)
     add_vuspsi   :    693.74s CPU    695.31s WALL (    6893 calls)

     General routines
     calbec       :    869.33s CPU    872.46s WALL (    7773 calls)
     fft          :    815.96s CPU    887.69s WALL (   21049 calls)
     ffts         :     53.30s CPU     53.90s WALL (    1530 calls)
     fftw         :   4766.84s CPU   4825.23s WALL (  319678 calls)
 
     Parallel routines
     fft_scatt_xy :    525.99s CPU    534.83s WALL (  342257 calls)
     fft_scatt_yz :   3293.57s CPU   3349.68s WALL (  342257 calls)
 
     PWSCF        :     4h40m CPU       40h 4m WALL

      46h
 
   This run was terminated on:  21:29:27  25Nov2020            

=------------------------------------------------------------------------------=
   JOB DONE.
=------------------------------------------------------------------------------=
