
     Program PWSCF v.6.3MaX starts on 25Nov2020 at 12:37:41 

     This program is part of the open-source Quantum ESPRESSO suite
     for quantum simulation of materials; please cite
         "P. Giannozzi et al., J. Phys.:Condens. Matter 21 395502 (2009);
         "P. Giannozzi et al., J. Phys.:Condens. Matter 29 465901 (2017);
          URL http://www.quantum-espresso.org", 
     in publications or presentations arising from this work. More details at
     http://www.quantum-espresso.org/quote

     Parallel version (MPI), running on     8 processors

     MPI processes distributed on     3 nodes
     R & G space division:  proc/nbgrp/npool/nimage =       8
     Waiting for input...
     Reading input from standard input

     Current dimensions of program PWSCF are:
     Max number of different atomic species (ntypx) = 10
     Max number of k-points (npk) =  40000
     Max angular momentum in pseudopotentials (lmaxx) =  3

     Subspace diagonalization in iterative solution of the eigenvalue problem:
     a serial algorithm will be used

 
     Parallelization info
     --------------------
     sticks:   dense  smooth     PW     G-vecs:    dense   smooth      PW
     Min        1758    1758    438               252392   252392   31546
     Max        1759    1759    439               252397   252397   31551
     Sum       14071   14071   3505              2019149  2019149  252395
 


     bravais-lattice index     =            4
     lattice parameter (alat)  =      25.2607  a.u.
     unit-cell volume          =   20885.8003 (a.u.)^3
     number of atoms/cell      =           17
     number of atomic types    =            1
     number of electrons       =        51.00
     number of Kohn-Sham states=           31
     kinetic-energy cutoff     =      80.0000  Ry
     charge density cutoff     =     320.0000  Ry
     convergence threshold     =      1.0E-06
     mixing beta               =       0.4000
     number of iterations used =            8  plain     mixing
     Exchange-correlation      = PBE ( 1  4  3  4 0 0)
     nstep                     =          300


     celldm(1)=  25.260725  celldm(2)=   0.000000  celldm(3)=   1.496177
     celldm(4)=   0.000000  celldm(5)=   0.000000  celldm(6)=   0.000000

     crystal axes: (cart. coord. in units of alat)
               a(1) = (   1.000000   0.000000   0.000000 )  
               a(2) = (  -0.500000   0.866025   0.000000 )  
               a(3) = (   0.000000   0.000000   1.496177 )  

     reciprocal axes: (cart. coord. in units 2 pi/alat)
               b(1) = (  1.000000  0.577350  0.000000 )  
               b(2) = (  0.000000  1.154701  0.000000 )  
               b(3) = (  0.000000  0.000000  0.668370 )  


     PseudoPot. # 1 for Al read from file:
     ./Al.upf
     MD5 check sum: 4974d48a734c9d7d1eb6780a1419d19d
     Pseudo is Norm-conserving + core correction, Zval =  3.0
     Generated using ONCVPSP code by D. R. Hamann
     Using radial grid of 1876 points,  6 beta functions with: 
                l(1) =   0
                l(2) =   0
                l(3) =   1
                l(4) =   1
                l(5) =   2
                l(6) =   2

     atomic species   valence    mass     pseudopotential
        Al             3.00    29.98200     Al( 1.00)

      4 Sym. Ops. (no inversion) found ( 2 have fractional translation)



   Cartesian axes

     site n.     atom                  positions (alat units)
         1           Al  tau(   1) = (   0.0000000   0.1924524   0.0000000  )
         2           Al  tau(   2) = (   0.3333348   0.1924537   0.0000000  )
         3           Al  tau(   3) = (   0.5000036   0.0962275   0.0000000  )
         4           Al  tau(   4) = (  -0.1666663   0.4811295   0.0000000  )
         5           Al  tau(   5) = (   0.0000024   0.3849033   0.0000000  )
         6           Al  tau(   6) = (   0.1666686   0.4811309   0.0000000  )
         7           Al  tau(   7) = (   0.3333373   0.3849047   0.0000000  )
         8           Al  tau(   8) = (  -0.3333326   0.7698067   0.0000000  )
         9           Al  tau(   9) = (  -0.1666639   0.6735805   0.0000000  )
        10           Al  tau(  10) = (   0.0000023   0.7698081   0.0000000  )
        11           Al  tau(  11) = (   0.1666710   0.6735818   0.0000000  )
        12           Al  tau(  12) = (   0.6666697   0.1924551   0.0000000  )
        13           Al  tau(  13) = (   0.8333384   0.0962289   0.0000000  )
        14           Al  tau(  14) = (   0.5000035   0.4811323   0.0000000  )
        15           Al  tau(  15) = (   0.6666722   0.3849060   0.0000000  )
        16           Al  tau(  16) = (   0.3333372   0.7698094   0.0000000  )
        17           Al  tau(  17) = (   0.5000059   0.6735832   0.0000000  )

     number of k points=     1  Methfessel-Paxton smearing, width (Ry)=  0.0500
                       cart. coord. in units 2pi/alat
        k(    1) = (   0.0000000   0.0000000   0.0000000), wk =   2.0000000

     Dense  grid:  2019149 G-vectors     FFT dimensions: ( 144, 144, 216)

     Estimated max dynamical RAM per process >     437.36 MB

     Estimated total dynamical RAM >       3.42 GB

     Initial potential from superposition of free atoms

     starting charge   50.95840, renormalised to   51.00000

     negative rho (up, down):  5.196E-05 0.000E+00
     Starting wfcs are   68 randomized atomic wfcs

     total cpu time spent up to now is       11.3 secs

     Self-consistent Calculation

     iteration #  1     ecut=    80.00 Ry     beta= 0.40
     Davidson diagonalization with overlap
     ethr =  1.00E-02,  avg # of iterations =  2.0

     total cpu time spent up to now is       18.1 secs

     total energy              =     -77.03450070 Ry
     Harris-Foulkes estimate   =     -77.31745526 Ry
     estimated scf accuracy    <       0.79306029 Ry

     iteration #  2     ecut=    80.00 Ry     beta= 0.40
     Davidson diagonalization with overlap
     ethr =  1.56E-03,  avg # of iterations =  4.0

     negative rho (up, down):  2.074E-07 0.000E+00

     total cpu time spent up to now is       24.7 secs

     total energy              =     -77.00115133 Ry
     Harris-Foulkes estimate   =     -77.25589924 Ry
     estimated scf accuracy    <       0.83183258 Ry

     iteration #  3     ecut=    80.00 Ry     beta= 0.40
     Davidson diagonalization with overlap
     ethr =  1.56E-03,  avg # of iterations =  3.0

     negative rho (up, down):  8.086E-06 0.000E+00

     total cpu time spent up to now is       30.8 secs

     total energy              =     -77.12519556 Ry
     Harris-Foulkes estimate   =     -77.19125112 Ry
     estimated scf accuracy    <       0.30826001 Ry

     iteration #  4     ecut=    80.00 Ry     beta= 0.40
     Davidson diagonalization with overlap
     ethr =  6.04E-04,  avg # of iterations =  2.0

     negative rho (up, down):  1.347E-05 0.000E+00

     total cpu time spent up to now is       36.1 secs

     total energy              =     -77.14816307 Ry
     Harris-Foulkes estimate   =     -77.16561394 Ry
     estimated scf accuracy    <       0.07517159 Ry

     iteration #  5     ecut=    80.00 Ry     beta= 0.40
     Davidson diagonalization with overlap
     ethr =  1.47E-04,  avg # of iterations =  3.0

     negative rho (up, down):  2.275E-05 0.000E+00

     total cpu time spent up to now is       41.8 secs

     total energy              =     -77.15921387 Ry
     Harris-Foulkes estimate   =     -77.16175615 Ry
     estimated scf accuracy    <       0.01379865 Ry

     iteration #  6     ecut=    80.00 Ry     beta= 0.40
     Davidson diagonalization with overlap
     ethr =  2.71E-05,  avg # of iterations =  4.0

     negative rho (up, down):  4.094E-05 0.000E+00

     total cpu time spent up to now is       48.8 secs

     total energy              =     -77.16167901 Ry
     Harris-Foulkes estimate   =     -77.16217523 Ry
     estimated scf accuracy    <       0.00273830 Ry

     iteration #  7     ecut=    80.00 Ry     beta= 0.40
     Davidson diagonalization with overlap
     ethr =  5.37E-06,  avg # of iterations =  3.0

     negative rho (up, down):  4.347E-05 0.000E+00

     total cpu time spent up to now is       55.0 secs

     total energy              =     -77.16200756 Ry
     Harris-Foulkes estimate   =     -77.16213787 Ry
     estimated scf accuracy    <       0.00050809 Ry

     iteration #  8     ecut=    80.00 Ry     beta= 0.40
     Davidson diagonalization with overlap
     ethr =  9.96E-07,  avg # of iterations =  3.0

     negative rho (up, down):  4.421E-05 0.000E+00

     total cpu time spent up to now is       61.5 secs

     total energy              =     -77.16203491 Ry
     Harris-Foulkes estimate   =     -77.16217785 Ry
     estimated scf accuracy    <       0.00085360 Ry

     iteration #  9     ecut=    80.00 Ry     beta= 0.40
     Davidson diagonalization with overlap
     ethr =  9.96E-07,  avg # of iterations =  2.0

     negative rho (up, down):  4.668E-05 0.000E+00

     total cpu time spent up to now is       67.0 secs

     total energy              =     -77.16210523 Ry
     Harris-Foulkes estimate   =     -77.16211117 Ry
     estimated scf accuracy    <       0.00003991 Ry

     iteration # 10     ecut=    80.00 Ry     beta= 0.40
     Davidson diagonalization with overlap
     ethr =  7.83E-08,  avg # of iterations =  6.0

     negative rho (up, down):  4.680E-05 0.000E+00

     total cpu time spent up to now is       75.2 secs

     total energy              =     -77.16211324 Ry
     Harris-Foulkes estimate   =     -77.16212511 Ry
     estimated scf accuracy    <       0.00008389 Ry

     iteration # 11     ecut=    80.00 Ry     beta= 0.40
     Davidson diagonalization with overlap
     ethr =  7.83E-08,  avg # of iterations =  3.0

     negative rho (up, down):  4.701E-05 0.000E+00

     total cpu time spent up to now is       80.9 secs

     total energy              =     -77.16211521 Ry
     Harris-Foulkes estimate   =     -77.16211943 Ry
     estimated scf accuracy    <       0.00002280 Ry

     iteration # 12     ecut=    80.00 Ry     beta= 0.40
     Davidson diagonalization with overlap
     ethr =  4.47E-08,  avg # of iterations =  4.0

     negative rho (up, down):  4.735E-05 0.000E+00

     total cpu time spent up to now is       86.6 secs

     total energy              =     -77.16211730 Ry
     Harris-Foulkes estimate   =     -77.16211783 Ry
     estimated scf accuracy    <       0.00000254 Ry

     iteration # 13     ecut=    80.00 Ry     beta= 0.40
     Davidson diagonalization with overlap
     ethr =  4.98E-09,  avg # of iterations =  8.0

     negative rho (up, down):  4.751E-05 0.000E+00

     total cpu time spent up to now is       94.5 secs

     total energy              =     -77.16211796 Ry
     Harris-Foulkes estimate   =     -77.16211848 Ry
     estimated scf accuracy    <       0.00000410 Ry

     iteration # 14     ecut=    80.00 Ry     beta= 0.40
     Davidson diagonalization with overlap
     ethr =  4.98E-09,  avg # of iterations =  2.0

     negative rho (up, down):  4.755E-05 0.000E+00

     total cpu time spent up to now is      100.3 secs

     total energy              =     -77.16211800 Ry
     Harris-Foulkes estimate   =     -77.16211819 Ry
     estimated scf accuracy    <       0.00000118 Ry

     iteration # 15     ecut=    80.00 Ry     beta= 0.40
     Davidson diagonalization with overlap
     ethr =  2.31E-09,  avg # of iterations =  3.0

     negative rho (up, down):  4.756E-05 0.000E+00

     total cpu time spent up to now is      105.7 secs

     End of self-consistent calculation

          k = 0.0000 0.0000 0.0000 (252395 PWs)   bands (ev):

    -9.9965  -9.1543  -9.0980  -9.0979  -9.0599  -9.0598  -8.4088  -7.5383
    -7.4674  -7.4673  -6.7264  -5.8850  -5.8792  -5.8792  -5.6093  -5.6092
    -4.7521  -4.7520  -4.0026  -3.5339  -3.3089  -3.2899  -3.2898  -3.2356
    -3.1475  -3.1135  -3.1132  -3.0991  -3.0989  -2.7512  -2.7510

     the Fermi energy is    -3.1136 ev

!    total energy              =     -77.16211796 Ry
     Harris-Foulkes estimate   =     -77.16211814 Ry
     estimated scf accuracy    <       0.00000019 Ry

     The total energy is the sum of the following terms:

     one-electron contribution =    -269.13864477 Ry
     hartree contribution      =     139.26289460 Ry
     xc contribution           =     -33.51701723 Ry
     ewald contribution        =      86.35186716 Ry
     smearing contrib. (-TS)   =      -0.12121771 Ry

     convergence has been achieved in  15 iterations

     negative rho (up, down):  4.756E-05 0.000E+00

     Forces acting on atoms (cartesian axes, Ry/au):

     atom    1 type  1   force =     0.01929101   -0.01113919    0.00000000
     atom    2 type  1   force =    -0.01930474   -0.01114560    0.00000000
     atom    3 type  1   force =     0.00404703    0.00306834    0.00000000
     atom    4 type  1   force =     0.00824092    0.00475790    0.00000000
     atom    5 type  1   force =    -0.00468495    0.00194720    0.00000000
     atom    6 type  1   force =    -0.00000656    0.00070640    0.00000000
     atom    7 type  1   force =     0.00468077    0.00197066    0.00000000
     atom    8 type  1   force =    -0.00000131    0.02227610    0.00000000
     atom    9 type  1   force =    -0.00065615   -0.00503088    0.00000000
     atom   10 type  1   force =     0.00060848   -0.00035888    0.00000000
     atom   11 type  1   force =    -0.00000196   -0.00000113    0.00000000
     atom   12 type  1   force =     0.00001393   -0.00950264    0.00000000
     atom   13 type  1   force =    -0.00403216    0.00307364    0.00000000
     atom   14 type  1   force =    -0.00822256    0.00476339    0.00000000
     atom   15 type  1   force =    -0.00001747   -0.00001008    0.00000000
     atom   16 type  1   force =    -0.00060005   -0.00034644    0.00000000
     atom   17 type  1   force =     0.00064577   -0.00502878    0.00000000

     Total force =     0.043777     Total SCF correction =     0.000326


     Computing stress (Cartesian axis) and pressure


     negative rho (up, down):  4.756E-05 0.000E+00
          total   stress  (Ry/bohr**3)                   (kbar)     P=   -0.80
  -0.00000820   0.00000000   0.00000000         -1.21      0.00      0.00
   0.00000000  -0.00000821   0.00000000          0.00     -1.21      0.00
   0.00000000   0.00000000   0.00000001          0.00      0.00      0.00


     BFGS Geometry Optimization

     number of scf cycles    =   1
     number of bfgs steps    =   0

     enthalpy new            =     -77.1621179594 Ry

     new trust radius        =       0.0222911913 bohr
     new conv_thr            =       0.0000010000 Ry

     new unit-cell volume =  20877.23267 a.u.^3 (  3093.68666 Ang^3 )
     density =      0.27358 g/cm^3

CELL_PARAMETERS (alat= 25.26072511)
   0.999794921   0.000000086   0.000000000
  -0.499897386   0.865847671   0.000000000
   0.000000000   0.000000000   1.496177267

ATOMIC_POSITIONS (angstrom)
Al       0.010207077   2.566166638   0.000000000
Al       4.444693105   2.566181821   0.000000000
Al       6.684518110   1.287671636   0.000000000
Al      -2.223077768   6.432648444   0.000000000
Al      -0.002446124   5.145131060   0.000000000
Al       2.227465751   6.430523500   0.000000000
Al       4.457415987   5.145162049   0.000000000
Al      -4.454875892  10.299987933   0.000000000
Al      -2.227752030   8.999510334   0.000000000
Al       0.000353734  10.288031049   0.000000000
Al       2.227501086   9.002189994   0.000000000
Al       8.909821011   2.567069633   0.000000000
Al      11.135150665   1.287693015   0.000000000
Al       6.678025924   6.432688498   0.000000000
Al       8.909837299   5.144132673   0.000000000
Al       4.454621337  10.288056206   0.000000000
Al       6.682750778   8.999548599   0.000000000



     Writing output data file 2al_planar_2x2_vcr.save/
     NEW-OLD atomic charge density approx. for the potential

     negative rho (up, down):  4.758E-05 0.000E+00
     extrapolated charge   50.97909, renormalised to   51.00000

     total cpu time spent up to now is      134.7 secs

     Self-consistent Calculation

     iteration #  1     ecut=    80.00 Ry     beta= 0.40
     Davidson diagonalization with overlap
     ethr =  1.00E-06,  avg # of iterations =  4.0

     negative rho (up, down):  4.766E-05 0.000E+00

     total cpu time spent up to now is      142.9 secs

     total energy              =     -77.16400774 Ry
     Harris-Foulkes estimate   =     -77.26500540 Ry
     estimated scf accuracy    <       0.00011860 Ry

     iteration #  2     ecut=    80.00 Ry     beta= 0.40
     Davidson diagonalization with overlap
     ethr =  2.33E-07,  avg # of iterations =  4.0

     negative rho (up, down):  4.762E-05 0.000E+00

     total cpu time spent up to now is      150.3 secs

     total energy              =     -77.16401317 Ry
     Harris-Foulkes estimate   =     -77.16410780 Ry
     estimated scf accuracy    <       0.00046544 Ry

     iteration #  3     ecut=    80.00 Ry     beta= 0.40
     Davidson diagonalization with overlap
     ethr =  2.33E-07,  avg # of iterations =  3.0

     negative rho (up, down):  4.760E-05 0.000E+00

     total cpu time spent up to now is      156.5 secs

     total energy              =     -77.16405386 Ry
     Harris-Foulkes estimate   =     -77.16406518 Ry
     estimated scf accuracy    <       0.00004880 Ry

     iteration #  4     ecut=    80.00 Ry     beta= 0.40
     Davidson diagonalization with overlap
     ethr =  9.57E-08,  avg # of iterations =  3.0

     negative rho (up, down):  4.759E-05 0.000E+00

     total cpu time spent up to now is      162.0 secs

     total energy              =     -77.16405691 Ry
     Harris-Foulkes estimate   =     -77.16406377 Ry
     estimated scf accuracy    <       0.00003429 Ry

     iteration #  5     ecut=    80.00 Ry     beta= 0.40
     Davidson diagonalization with overlap
     ethr =  6.72E-08,  avg # of iterations =  1.0

     negative rho (up, down):  4.757E-05 0.000E+00

     total cpu time spent up to now is      167.4 secs

     total energy              =     -77.16406026 Ry
     Harris-Foulkes estimate   =     -77.16406084 Ry
     estimated scf accuracy    <       0.00000318 Ry

     iteration #  6     ecut=    80.00 Ry     beta= 0.40
     Davidson diagonalization with overlap
     ethr =  6.24E-09,  avg # of iterations =  5.0

     negative rho (up, down):  4.756E-05 0.000E+00

     total cpu time spent up to now is      174.7 secs

     total energy              =     -77.16406052 Ry
     Harris-Foulkes estimate   =     -77.16406185 Ry
     estimated scf accuracy    <       0.00000725 Ry

     iteration #  7     ecut=    80.00 Ry     beta= 0.40
     Davidson diagonalization with overlap
     ethr =  6.24E-09,  avg # of iterations =  5.0

     negative rho (up, down):  4.755E-05 0.000E+00

     total cpu time spent up to now is      180.9 secs

     total energy              =     -77.16406111 Ry
     Harris-Foulkes estimate   =     -77.16406134 Ry
     estimated scf accuracy    <       0.00000140 Ry

     iteration #  8     ecut=    80.00 Ry     beta= 0.40
     Davidson diagonalization with overlap
     ethr =  2.74E-09,  avg # of iterations =  3.0

     negative rho (up, down):  4.753E-05 0.000E+00

     total cpu time spent up to now is      186.6 secs

     End of self-consistent calculation

          k = 0.0000 0.0000 0.0000 (252395 PWs)   bands (ev):

    -9.9963  -9.1514  -9.0993  -9.0993  -9.0556  -9.0555  -8.4040  -7.5359
    -7.4656  -7.4655  -6.7338  -5.8835  -5.8717  -5.8716  -5.6129  -5.6128
    -4.7563  -4.7562  -4.0020  -3.5553  -3.2990  -3.2861  -3.2860  -3.2412
    -3.1448  -3.1120  -3.1119  -3.0976  -3.0975  -2.7446  -2.7444

     the Fermi energy is    -3.1120 ev

!    total energy              =     -77.16406115 Ry
     Harris-Foulkes estimate   =     -77.16406125 Ry
     estimated scf accuracy    <       0.00000023 Ry

     The total energy is the sum of the following terms:

     one-electron contribution =    -269.17388288 Ry
     hartree contribution      =     139.27813802 Ry
     xc contribution           =     -33.51193531 Ry
     ewald contribution        =      86.36381059 Ry
     smearing contrib. (-TS)   =      -0.12019156 Ry

     convergence has been achieved in   8 iterations

     negative rho (up, down):  4.753E-05 0.000E+00

     Forces acting on atoms (cartesian axes, Ry/au):

     atom    1 type  1   force =     0.01914236   -0.01103695    0.00000000
     atom    2 type  1   force =    -0.01912846   -0.01104382    0.00000000
     atom    3 type  1   force =     0.00249129    0.00318510    0.00000000
     atom    4 type  1   force =     0.00683917    0.00394859    0.00000000
     atom    5 type  1   force =    -0.00399800    0.00059934    0.00000000
     atom    6 type  1   force =    -0.00001437    0.00026248    0.00000000
     atom    7 type  1   force =     0.00400402    0.00056497    0.00000000
     atom    8 type  1   force =     0.00001291    0.02209625    0.00000000
     atom    9 type  1   force =    -0.00147995   -0.00376204    0.00000000
     atom   10 type  1   force =     0.00022013   -0.00014368    0.00000000
     atom   11 type  1   force =    -0.00000630   -0.00000364    0.00000000
     atom   12 type  1   force =     0.00000397   -0.00787927    0.00000000
     atom   13 type  1   force =    -0.00252137    0.00318045    0.00000000
     atom   14 type  1   force =    -0.00682166    0.00394308    0.00000000
     atom   15 type  1   force =    -0.00000238   -0.00000137    0.00000000
     atom   16 type  1   force =    -0.00023503   -0.00013569    0.00000000
     atom   17 type  1   force =     0.00149367   -0.00377379    0.00000000

     Total force =     0.041826     Total SCF correction =     0.000296


     Computing stress (Cartesian axis) and pressure


     negative rho (up, down):  4.753E-05 0.000E+00
          total   stress  (Ry/bohr**3)                   (kbar)     P=   -0.87
  -0.00000887   0.00000000  -0.00000000         -1.30      0.00     -0.00
   0.00000000  -0.00000887  -0.00000000          0.00     -1.30     -0.00
   0.00000000   0.00000000   0.00000004          0.00      0.00      0.01


     number of scf cycles    =   2
     number of bfgs steps    =   1

     enthalpy old            =     -77.1621179594 Ry
     enthalpy new            =     -77.1640611459 Ry

     CASE: enthalpy_new < enthalpy_old


     WARNING: bfgs curvature condition failed, Theta= 0.838
     new trust radius        =       0.0334299314 bohr
     new conv_thr            =       0.0000010000 Ry

     new unit-cell volume =  20863.79118 a.u.^3 (  3091.69484 Ang^3 )
     density =      0.27375 g/cm^3

CELL_PARAMETERS (alat= 25.26072511)
   0.999473106   0.000000238   0.000000000
  -0.499736347   0.865568743   0.000000000
   0.000000000   0.000000000   1.496177267

ATOMIC_POSITIONS (angstrom)
Al       0.025519866   2.556503162   0.000000000
Al       4.427947463   2.556513708   0.000000000
Al       6.684958361   1.289751217   0.000000000
Al      -2.216363961   6.434038943   0.000000000
Al      -0.005898794   5.144476727   0.000000000
Al       2.226741339   6.428834959   0.000000000
Al       4.459437082   5.144503516   0.000000000
Al      -4.453435627  10.314352350   0.000000000
Al      -2.227892348   8.993118827   0.000000000
Al       0.000681906  10.284519369   0.000000000
Al       2.226782137   8.999289189   0.000000000
Al       8.906960540   2.559331637   0.000000000
Al      11.128968518   1.289773436   0.000000000
Al       6.669894398   6.434080225   0.000000000
Al       8.906962401   5.142472838   0.000000000
Al       4.452859538  10.284553299   0.000000000
Al       6.681461401   8.993154470   0.000000000



     Writing output data file 2al_planar_2x2_vcr.save/
     NEW-OLD atomic charge density approx. for the potential

     negative rho (up, down):  4.756E-05 0.000E+00
     extrapolated charge   50.96717, renormalised to   51.00000

     total cpu time spent up to now is      215.2 secs

     Self-consistent Calculation

     iteration #  1     ecut=    80.00 Ry     beta= 0.40
     Davidson diagonalization with overlap
     ethr =  1.00E-06,  avg # of iterations =  4.0

     negative rho (up, down):  4.769E-05 0.000E+00

     total cpu time spent up to now is      222.8 secs

     total energy              =     -77.16668604 Ry
     Harris-Foulkes estimate   =     -77.32529600 Ry
     estimated scf accuracy    <       0.00022856 Ry

     iteration #  2     ecut=    80.00 Ry     beta= 0.40
     Davidson diagonalization with overlap
     ethr =  4.48E-07,  avg # of iterations =  4.0

     negative rho (up, down):  4.763E-05 0.000E+00

     total cpu time spent up to now is      229.2 secs

     total energy              =     -77.16671146 Ry
     Harris-Foulkes estimate   =     -77.16687779 Ry
     estimated scf accuracy    <       0.00078871 Ry

     iteration #  3     ecut=    80.00 Ry     beta= 0.40
     Davidson diagonalization with overlap
     ethr =  4.48E-07,  avg # of iterations =  3.0

     negative rho (up, down):  4.762E-05 0.000E+00

     total cpu time spent up to now is      234.7 secs

     total energy              =     -77.16678199 Ry
     Harris-Foulkes estimate   =     -77.16679774 Ry
     estimated scf accuracy    <       0.00006521 Ry

     iteration #  4     ecut=    80.00 Ry     beta= 0.40
     Davidson diagonalization with overlap
     ethr =  1.28E-07,  avg # of iterations =  3.0

     negative rho (up, down):  4.761E-05 0.000E+00

     total cpu time spent up to now is      239.4 secs

     total energy              =     -77.16678449 Ry
     Harris-Foulkes estimate   =     -77.16679390 Ry
     estimated scf accuracy    <       0.00004012 Ry

     iteration #  5     ecut=    80.00 Ry     beta= 0.40
     Davidson diagonalization with overlap
     ethr =  7.87E-08,  avg # of iterations =  1.0

     negative rho (up, down):  4.756E-05 0.000E+00

     total cpu time spent up to now is      243.8 secs

     total energy              =     -77.16678887 Ry
     Harris-Foulkes estimate   =     -77.16679165 Ry
     estimated scf accuracy    <       0.00001551 Ry

     iteration #  6     ecut=    80.00 Ry     beta= 0.40
     Davidson diagonalization with overlap
     ethr =  3.04E-08,  avg # of iterations =  3.0

     negative rho (up, down):  4.755E-05 0.000E+00

     total cpu time spent up to now is      248.7 secs

     total energy              =     -77.16678987 Ry
     Harris-Foulkes estimate   =     -77.16679218 Ry
     estimated scf accuracy    <       0.00001164 Ry

     iteration #  7     ecut=    80.00 Ry     beta= 0.40
     Davidson diagonalization with overlap
     ethr =  2.28E-08,  avg # of iterations =  1.0

     negative rho (up, down):  4.749E-05 0.000E+00

     total cpu time spent up to now is      253.1 secs

     End of self-consistent calculation

          k = 0.0000 0.0000 0.0000 (252395 PWs)   bands (ev):

    -9.9964  -9.1478  -9.1024  -9.1021  -9.0494  -9.0491  -8.3983  -7.5328
    -7.4633  -7.4633  -6.7451  -5.8812  -5.8618  -5.8617  -5.6183  -5.6181
    -4.7629  -4.7628  -4.0016  -3.5886  -3.2851  -3.2808  -3.2807  -3.2491
    -3.1411  -3.1125  -3.1122  -3.0937  -3.0935  -2.7356  -2.7354

     the Fermi energy is    -3.1099 ev

!    total energy              =     -77.16679082 Ry
     Harris-Foulkes estimate   =     -77.16679132 Ry
     estimated scf accuracy    <       0.00000089 Ry

     The total energy is the sum of the following terms:

     one-electron contribution =    -269.23330902 Ry
     hartree contribution      =     139.30466913 Ry
     xc contribution           =     -33.50485479 Ry
     ewald contribution        =      86.38537431 Ry
     smearing contrib. (-TS)   =      -0.11867045 Ry

     convergence has been achieved in   7 iterations

     negative rho (up, down):  4.749E-05 0.000E+00

     Forces acting on atoms (cartesian axes, Ry/au):

     atom    1 type  1   force =     0.01889916   -0.01089753    0.00000000
     atom    2 type  1   force =    -0.01889482   -0.01090893    0.00000000
     atom    3 type  1   force =     0.00037413    0.00330827    0.00000000
     atom    4 type  1   force =     0.00495044    0.00285814    0.00000000
     atom    5 type  1   force =    -0.00301733   -0.00133673    0.00000000
     atom    6 type  1   force =    -0.00001448   -0.00034505    0.00000000
     atom    7 type  1   force =     0.00305211   -0.00133013    0.00000000
     atom    8 type  1   force =     0.00001204    0.02181592    0.00000000
     atom    9 type  1   force =    -0.00266630   -0.00194472    0.00000000
     atom   10 type  1   force =    -0.00030606    0.00015998    0.00000000
     atom   11 type  1   force =     0.00002537    0.00001465    0.00000000
     atom   12 type  1   force =    -0.00000476   -0.00568446    0.00000000
     atom   13 type  1   force =    -0.00037672    0.00326447    0.00000000
     atom   14 type  1   force =    -0.00492527    0.00283811    0.00000000
     atom   15 type  1   force =    -0.00003325   -0.00001920    0.00000000
     atom   16 type  1   force =     0.00028700    0.00016570    0.00000000
     atom   17 type  1   force =     0.00263875   -0.00195848    0.00000000

     Total force =     0.039888     Total SCF correction =     0.000400


     Computing stress (Cartesian axis) and pressure


     negative rho (up, down):  4.749E-05 0.000E+00
          total   stress  (Ry/bohr**3)                   (kbar)     P=   -0.96
  -0.00000979   0.00000000   0.00000000         -1.44      0.00      0.00
   0.00000000  -0.00000980   0.00000000          0.00     -1.44      0.00
   0.00000000   0.00000000   0.00000009          0.00      0.00      0.01


     number of scf cycles    =   3
     number of bfgs steps    =   2

     enthalpy old            =     -77.1640611459 Ry
     enthalpy new            =     -77.1667908197 Ry

     CASE: enthalpy_new < enthalpy_old

     new trust radius        =       0.0501287608 bohr
     new conv_thr            =       0.0000010000 Ry

     new unit-cell volume =  20842.37412 a.u.^3 (  3088.52116 Ang^3 )
     density =      0.27404 g/cm^3

CELL_PARAMETERS (alat= 25.26072511)
   0.998960106   0.000000447   0.000000000
  -0.499479666   0.865124158   0.000000000
   0.000000000   0.000000000   1.496177267

ATOMIC_POSITIONS (angstrom)
Al       0.048460795   2.541944692   0.000000000
Al       4.402714000   2.541945142   0.000000000
Al       6.684126239   1.292926318   0.000000000
Al      -2.207345966   6.435283500   0.000000000
Al      -0.010496374   5.142143687   0.000000000
Al       2.225587522   6.425734219   0.000000000
Al       4.461770739   5.142195308   0.000000000
Al      -4.451142003  10.335556027   0.000000000
Al      -2.228780448   8.984360759   0.000000000
Al       0.000850857  10.279127508   0.000000000
Al       2.225657518   8.994677906   0.000000000
Al       8.902394853   2.548949033   0.000000000
Al      11.120669449   1.292924206   0.000000000
Al       6.658619972   6.435317479   0.000000000
Al       8.902358427   5.139814715   0.000000000
Al       4.450403590  10.279173354   0.000000000
Al       6.680040513   8.984391843   0.000000000



     Writing output data file 2al_planar_2x2_vcr.save/
     NEW-OLD atomic charge density approx. for the potential

     negative rho (up, down):  4.754E-05 0.000E+00
     extrapolated charge   50.94764, renormalised to   51.00000

     total cpu time spent up to now is      281.2 secs

     Self-consistent Calculation

     iteration #  1     ecut=    80.00 Ry     beta= 0.40
     Davidson diagonalization with overlap
     ethr =  1.00E-06,  avg # of iterations =  6.0

     negative rho (up, down):  4.774E-05 0.000E+00

     total cpu time spent up to now is      289.2 secs

     total energy              =     -77.17034762 Ry
     Harris-Foulkes estimate   =     -77.42350165 Ry
     estimated scf accuracy    <       0.00050422 Ry

     iteration #  2     ecut=    80.00 Ry     beta= 0.40
     Davidson diagonalization with overlap
     ethr =  9.89E-07,  avg # of iterations =  5.0

     negative rho (up, down):  4.764E-05 0.000E+00

     total cpu time spent up to now is      295.2 secs

     total energy              =     -77.17036806 Ry
     Harris-Foulkes estimate   =     -77.17086264 Ry
     estimated scf accuracy    <       0.00265634 Ry

     iteration #  3     ecut=    80.00 Ry     beta= 0.40
     Davidson diagonalization with overlap
     ethr =  9.89E-07,  avg # of iterations =  4.0

     negative rho (up, down):  4.761E-05 0.000E+00

     total cpu time spent up to now is      300.9 secs

     total energy              =     -77.17057606 Ry
     Harris-Foulkes estimate   =     -77.17062190 Ry
     estimated scf accuracy    <       0.00021319 Ry

     iteration #  4     ecut=    80.00 Ry     beta= 0.40
     Davidson diagonalization with overlap
     ethr =  4.18E-07,  avg # of iterations =  4.0

     negative rho (up, down):  4.754E-05 0.000E+00

     total cpu time spent up to now is      305.8 secs

     total energy              =     -77.17058790 Ry
     Harris-Foulkes estimate   =     -77.17060775 Ry
     estimated scf accuracy    <       0.00009522 Ry

     iteration #  5     ecut=    80.00 Ry     beta= 0.40
     Davidson diagonalization with overlap
     ethr =  1.87E-07,  avg # of iterations =  3.0

     negative rho (up, down):  4.737E-05 0.000E+00

     total cpu time spent up to now is      310.6 secs

     total energy              =     -77.17059459 Ry
     Harris-Foulkes estimate   =     -77.17059995 Ry
     estimated scf accuracy    <       0.00002505 Ry

     iteration #  6     ecut=    80.00 Ry     beta= 0.40
     Davidson diagonalization with overlap
     ethr =  4.91E-08,  avg # of iterations =  6.0

     negative rho (up, down):  4.735E-05 0.000E+00

     total cpu time spent up to now is      316.6 secs

     total energy              =     -77.17059517 Ry
     Harris-Foulkes estimate   =     -77.17060401 Ry
     estimated scf accuracy    <       0.00005176 Ry

     iteration #  7     ecut=    80.00 Ry     beta= 0.40
     Davidson diagonalization with overlap
     ethr =  4.91E-08,  avg # of iterations =  4.0

     negative rho (up, down):  4.735E-05 0.000E+00

     total cpu time spent up to now is      321.7 secs

     total energy              =     -77.17059930 Ry
     Harris-Foulkes estimate   =     -77.17060027 Ry
     estimated scf accuracy    <       0.00000462 Ry

     iteration #  8     ecut=    80.00 Ry     beta= 0.40
     Davidson diagonalization with overlap
     ethr =  9.05E-09,  avg # of iterations =  4.0

     negative rho (up, down):  4.736E-05 0.000E+00

     total cpu time spent up to now is      327.0 secs

     End of self-consistent calculation

          k = 0.0000 0.0000 0.0000 (252395 PWs)   bands (ev):

    -9.9958  -9.1421  -9.1060  -9.1059  -9.0390  -9.0388  -8.3911  -7.5270
    -7.4590  -7.4589  -6.7605  -5.8764  -5.8474  -5.8473  -5.6243  -5.6242
    -4.7719  -4.7718  -4.0003  -3.6402  -3.2715  -3.2714  -3.2668  -3.2551
    -3.1355  -3.1137  -3.1136  -3.0857  -3.0856  -2.7219  -2.7217

     the Fermi energy is    -3.1056 ev

!    total energy              =     -77.17059976 Ry
     Harris-Foulkes estimate   =     -77.17059995 Ry
     estimated scf accuracy    <       0.00000075 Ry

     The total energy is the sum of the following terms:

     one-electron contribution =    -269.33307265 Ry
     hartree contribution      =     139.34813509 Ry
     xc contribution           =     -33.49438860 Ry
     ewald contribution        =      86.42522643 Ry
     smearing contrib. (-TS)   =      -0.11650002 Ry

     convergence has been achieved in   8 iterations

     negative rho (up, down):  4.736E-05 0.000E+00

     Forces acting on atoms (cartesian axes, Ry/au):

     atom    1 type  1   force =     0.01844099   -0.01066177    0.00000000
     atom    2 type  1   force =    -0.01844076   -0.01064678    0.00000000
     atom    3 type  1   force =    -0.00249653    0.00339945    0.00000000
     atom    4 type  1   force =     0.00249887    0.00144273    0.00000000
     atom    5 type  1   force =    -0.00170082   -0.00384075    0.00000000
     atom    6 type  1   force =     0.00000384   -0.00115947    0.00000000
     atom    7 type  1   force =     0.00169574   -0.00386178    0.00000000
     atom    8 type  1   force =    -0.00001287    0.02130125    0.00000000
     atom    9 type  1   force =    -0.00417660    0.00044743    0.00000000
     atom   10 type  1   force =    -0.00100221    0.00058306    0.00000000
     atom   11 type  1   force =     0.00000663    0.00000383    0.00000000
     atom   12 type  1   force =     0.00001280   -0.00288874    0.00000000
     atom   13 type  1   force =     0.00248349    0.00339701    0.00000000
     atom   14 type  1   force =    -0.00249532    0.00145545    0.00000000
     atom   15 type  1   force =     0.00000468    0.00000270    0.00000000
     atom   16 type  1   force =     0.00099441    0.00057412    0.00000000
     atom   17 type  1   force =     0.00418364    0.00045226    0.00000000

     Total force =     0.038681     Total SCF correction =     0.000280


     Computing stress (Cartesian axis) and pressure


     negative rho (up, down):  4.736E-05 0.000E+00
          total   stress  (Ry/bohr**3)                   (kbar)     P=   -1.09
  -0.00001116   0.00000000   0.00000000         -1.64      0.00      0.00
   0.00000000  -0.00001116   0.00000000          0.00     -1.64      0.00
   0.00000000   0.00000000   0.00000011          0.00      0.00      0.02


     number of scf cycles    =   4
     number of bfgs steps    =   3

     enthalpy old            =     -77.1667908197 Ry
     enthalpy new            =     -77.1705997560 Ry

     CASE: enthalpy_new < enthalpy_old

     new trust radius        =       0.0751545558 bohr
     new conv_thr            =       0.0000010000 Ry

     new unit-cell volume =  20808.52033 a.u.^3 (  3083.50454 Ang^3 )
     density =      0.27448 g/cm^3

CELL_PARAMETERS (alat= 25.26072511)
   0.998148637   0.000000715   0.000000000
  -0.499073700   0.864421005   0.000000000
   0.000000000   0.000000000   1.496177267

ATOMIC_POSITIONS (angstrom)
Al       0.082820766   2.520007824   0.000000000
Al       4.364724370   2.520011789   0.000000000
Al       6.681056817   1.297707997   0.000000000
Al      -2.194970024   6.436162483   0.000000000
Al      -0.016718528   5.137078191   0.000000000
Al       2.223776187   6.420372379   0.000000000
Al       4.464377083   5.137146242   0.000000000
Al      -4.447533178  10.366881649   0.000000000
Al      -2.230851650   8.972105575   0.000000000
Al       0.000728448  10.270840331   0.000000000
Al       2.223859509   8.987373556   0.000000000
Al       8.895186438   2.534677151   0.000000000
Al      11.109286122   1.297704110   0.000000000
Al       6.642655979   6.436210675   0.000000000
Al       8.895107601   5.135628419   0.000000000
Al       4.446917653  10.270894447   0.000000000
Al       6.678488368   8.972143583   0.000000000



     Writing output data file 2al_planar_2x2_vcr.save/
     NEW-OLD atomic charge density approx. for the potential

     negative rho (up, down):  4.745E-05 0.000E+00
     extrapolated charge   50.91709, renormalised to   51.00000

     total cpu time spent up to now is      355.2 secs

     Self-consistent Calculation

     iteration #  1     ecut=    80.00 Ry     beta= 0.40
     Davidson diagonalization with overlap
     ethr =  1.00E-06,  avg # of iterations =  7.0

     negative rho (up, down):  4.779E-05 0.000E+00

     total cpu time spent up to now is      363.9 secs

     total energy              =     -77.17528463 Ry
     Harris-Foulkes estimate   =     -77.57652505 Ry
     estimated scf accuracy    <       0.00110959 Ry

     iteration #  2     ecut=    80.00 Ry     beta= 0.40
     Davidson diagonalization with overlap
     ethr =  2.18E-06,  avg # of iterations =  5.0

     negative rho (up, down):  4.764E-05 0.000E+00

     total cpu time spent up to now is      370.0 secs

     total energy              =     -77.17542813 Ry
     Harris-Foulkes estimate   =     -77.17649807 Ry
     estimated scf accuracy    <       0.00558130 Ry

     iteration #  3     ecut=    80.00 Ry     beta= 0.40
     Davidson diagonalization with overlap
     ethr =  2.18E-06,  avg # of iterations =  3.0

     negative rho (up, down):  4.761E-05 0.000E+00

     total cpu time spent up to now is      375.5 secs

     total energy              =     -77.17585797 Ry
     Harris-Foulkes estimate   =     -77.17592457 Ry
     estimated scf accuracy    <       0.00032356 Ry

     iteration #  4     ecut=    80.00 Ry     beta= 0.40
     Davidson diagonalization with overlap
     ethr =  6.34E-07,  avg # of iterations =  5.0

     negative rho (up, down):  4.753E-05 0.000E+00

     total cpu time spent up to now is      380.8 secs

     total energy              =     -77.17586649 Ry
     Harris-Foulkes estimate   =     -77.17590681 Ry
     estimated scf accuracy    <       0.00022424 Ry

     iteration #  5     ecut=    80.00 Ry     beta= 0.40
     Davidson diagonalization with overlap
     ethr =  4.40E-07,  avg # of iterations =  4.0

     negative rho (up, down):  4.724E-05 0.000E+00

     total cpu time spent up to now is      385.2 secs

     total energy              =     -77.17587317 Ry
     Harris-Foulkes estimate   =     -77.17588950 Ry
     estimated scf accuracy    <       0.00007191 Ry

     iteration #  6     ecut=    80.00 Ry     beta= 0.40
     Davidson diagonalization with overlap
     ethr =  1.41E-07,  avg # of iterations =  4.0

     negative rho (up, down):  4.722E-05 0.000E+00

     total cpu time spent up to now is      390.7 secs

     total energy              =     -77.17588446 Ry
     Harris-Foulkes estimate   =     -77.17589048 Ry
     estimated scf accuracy    <       0.00003084 Ry

     iteration #  7     ecut=    80.00 Ry     beta= 0.40
     Davidson diagonalization with overlap
     ethr =  6.05E-08,  avg # of iterations =  2.0

     negative rho (up, down):  4.721E-05 0.000E+00

     total cpu time spent up to now is      395.3 secs

     total energy              =     -77.17588586 Ry
     Harris-Foulkes estimate   =     -77.17588885 Ry
     estimated scf accuracy    <       0.00001672 Ry

     iteration #  8     ecut=    80.00 Ry     beta= 0.40
     Davidson diagonalization with overlap
     ethr =  3.28E-08,  avg # of iterations =  1.0

     negative rho (up, down):  4.720E-05 0.000E+00

     total cpu time spent up to now is      399.9 secs

     total energy              =     -77.17588614 Ry
     Harris-Foulkes estimate   =     -77.17588720 Ry
     estimated scf accuracy    <       0.00000395 Ry

     iteration #  9     ecut=    80.00 Ry     beta= 0.40
     Davidson diagonalization with overlap
     ethr =  7.75E-09,  avg # of iterations =  3.0

     negative rho (up, down):  4.719E-05 0.000E+00

     total cpu time spent up to now is      405.1 secs

     total energy              =     -77.17588673 Ry
     Harris-Foulkes estimate   =     -77.17588734 Ry
     estimated scf accuracy    <       0.00000405 Ry

     iteration # 10     ecut=    80.00 Ry     beta= 0.40
     Davidson diagonalization with overlap
     ethr =  7.75E-09,  avg # of iterations =  1.0

     negative rho (up, down):  4.717E-05 0.000E+00

     total cpu time spent up to now is      409.2 secs

     End of self-consistent calculation

          k = 0.0000 0.0000 0.0000 (252395 PWs)   bands (ev):

    -9.9942  -9.1333  -9.1099  -9.1098  -9.0238  -9.0236  -8.3841  -7.5174
    -7.4520  -7.4520  -6.7837  -5.8673  -5.8274  -5.8273  -5.6319  -5.6317
    -4.7845  -4.7844  -3.9978  -3.7243  -3.2731  -3.2565  -3.2563  -3.2267
    -3.1265  -3.1148  -3.1146  -3.0738  -3.0736  -2.7019  -2.7017

     the Fermi energy is    -3.0975 ev

!    total energy              =     -77.17588660 Ry
     Harris-Foulkes estimate   =     -77.17588709 Ry
     estimated scf accuracy    <       0.00000063 Ry

     The total energy is the sum of the following terms:

     one-electron contribution =    -269.49940742 Ry
     hartree contribution      =     139.41843423 Ry
     xc contribution           =     -33.47893487 Ry
     ewald contribution        =      86.49765528 Ry
     smearing contrib. (-TS)   =      -0.11363381 Ry

     convergence has been achieved in  10 iterations

     negative rho (up, down):  4.717E-05 0.000E+00

     Forces acting on atoms (cartesian axes, Ry/au):

     atom    1 type  1   force =     0.01749344   -0.01009834    0.00000000
     atom    2 type  1   force =    -0.01747855   -0.01009124    0.00000000
     atom    3 type  1   force =    -0.00643762    0.00331515    0.00000000
     atom    4 type  1   force =    -0.00072150   -0.00041656    0.00000000
     atom    5 type  1   force =     0.00033137   -0.00722485    0.00000000
     atom    6 type  1   force =    -0.00001010   -0.00219518    0.00000000
     atom    7 type  1   force =    -0.00034781   -0.00723272    0.00000000
     atom    8 type  1   force =     0.00000130    0.02019893    0.00000000
     atom    9 type  1   force =    -0.00609122    0.00389940    0.00000000
     atom   10 type  1   force =    -0.00190613    0.00108885    0.00000000
     atom   11 type  1   force =    -0.00002557   -0.00001476    0.00000000
     atom   12 type  1   force =    -0.00000184    0.00083322    0.00000000
     atom   13 type  1   force =     0.00643762    0.00334554    0.00000000
     atom   14 type  1   force =     0.00072067   -0.00041821    0.00000000
     atom   15 type  1   force =     0.00001758    0.00001015    0.00000000
     atom   16 type  1   force =     0.00190223    0.00109825    0.00000000
     atom   17 type  1   force =     0.00611613    0.00390237    0.00000000

     Total force =     0.039429     Total SCF correction =     0.000695


     Computing stress (Cartesian axis) and pressure


     negative rho (up, down):  4.717E-05 0.000E+00
          total   stress  (Ry/bohr**3)                   (kbar)     P=   -1.29
  -0.00001311  -0.00000001   0.00000000         -1.93     -0.00      0.00
  -0.00000001  -0.00001310   0.00000000         -0.00     -1.93      0.00
   0.00000000   0.00000000  -0.00000001          0.00      0.00     -0.00


     number of scf cycles    =   5
     number of bfgs steps    =   4

     enthalpy old            =     -77.1705997560 Ry
     enthalpy new            =     -77.1758866003 Ry

     CASE: enthalpy_new < enthalpy_old

     new trust radius        =       0.1126402776 bohr
     new conv_thr            =       0.0000010000 Ry

     new unit-cell volume =  20755.14522 a.u.^3 (  3075.59517 Ang^3 )
     density =      0.27519 g/cm^3

CELL_PARAMETERS (alat= 25.26072511)
   0.996867652   0.000000701   0.000000000
  -0.498433219   0.863311659   0.000000000
   0.000000000   0.000000000   1.496177267

ATOMIC_POSITIONS (angstrom)
Al       0.134256580   2.487013395   0.000000000
Al       4.307568183   2.487012602   0.000000000
Al       6.674023411   1.304772373   0.000000000
Al      -2.177728699   6.436230651   0.000000000
Al      -0.025041427   5.127420992   0.000000000
Al       2.220902486   6.411404323   0.000000000
Al       4.466978308   5.127522901   0.000000000
Al      -4.441827697  10.413094390   0.000000000
Al      -2.234814894   8.954897185   0.000000000
Al       0.000086661  10.258006442   0.000000000
Al       2.220990074   8.975830773   0.000000000
Al       8.883794124   2.514795145   0.000000000
Al      11.093512596   1.304790875   0.000000000
Al       6.619741540   6.436285526   0.000000000
Al       8.883669535   5.129024603   0.000000000
Al       4.441858473  10.258087366   0.000000000
Al       6.676738922   8.954939834   0.000000000



     Writing output data file 2al_planar_2x2_vcr.save/
     NEW-OLD atomic charge density approx. for the potential

     negative rho (up, down):  4.733E-05 0.000E+00
     extrapolated charge   50.86895, renormalised to   51.00000

     total cpu time spent up to now is      437.7 secs

     Self-consistent Calculation

     iteration #  1     ecut=    80.00 Ry     beta= 0.40
     Davidson diagonalization with overlap
     ethr =  1.00E-06,  avg # of iterations =  8.0

     negative rho (up, down):  4.783E-05 0.000E+00

     total cpu time spent up to now is      447.3 secs

     total energy              =     -77.18109770 Ry
     Harris-Foulkes estimate   =     -77.81685993 Ry
     estimated scf accuracy    <       0.00317218 Ry

     iteration #  2     ecut=    80.00 Ry     beta= 0.40
     Davidson diagonalization with overlap
     ethr =  6.22E-06,  avg # of iterations =  5.0

     negative rho (up, down):  4.756E-05 0.000E+00

     total cpu time spent up to now is      453.3 secs

     total energy              =     -77.18144995 Ry
     Harris-Foulkes estimate   =     -77.18477918 Ry
     estimated scf accuracy    <       0.01756789 Ry

     iteration #  3     ecut=    80.00 Ry     beta= 0.40
     Davidson diagonalization with overlap
     ethr =  6.22E-06,  avg # of iterations =  4.0

     negative rho (up, down):  4.750E-05 0.000E+00

     total cpu time spent up to now is      459.0 secs

     total energy              =     -77.18279617 Ry
     Harris-Foulkes estimate   =     -77.18300076 Ry
     estimated scf accuracy    <       0.00107216 Ry

     iteration #  4     ecut=    80.00 Ry     beta= 0.40
     Davidson diagonalization with overlap
     ethr =  2.10E-06,  avg # of iterations =  5.0

     negative rho (up, down):  4.738E-05 0.000E+00

     total cpu time spent up to now is      464.3 secs

     total energy              =     -77.18284941 Ry
     Harris-Foulkes estimate   =     -77.18293405 Ry
     estimated scf accuracy    <       0.00052608 Ry

     iteration #  5     ecut=    80.00 Ry     beta= 0.40
     Davidson diagonalization with overlap
     ethr =  1.03E-06,  avg # of iterations =  4.0

     negative rho (up, down):  4.680E-05 0.000E+00

     total cpu time spent up to now is      468.9 secs

     total energy              =     -77.18283686 Ry
     Harris-Foulkes estimate   =     -77.18289096 Ry
     estimated scf accuracy    <       0.00019147 Ry

     iteration #  6     ecut=    80.00 Ry     beta= 0.40
     Davidson diagonalization with overlap
     ethr =  3.75E-07,  avg # of iterations =  4.0

     negative rho (up, down):  4.681E-05 0.000E+00

     total cpu time spent up to now is      474.7 secs

     total energy              =     -77.18287847 Ry
     Harris-Foulkes estimate   =     -77.18289053 Ry
     estimated scf accuracy    <       0.00006618 Ry

     iteration #  7     ecut=    80.00 Ry     beta= 0.40
     Davidson diagonalization with overlap
     ethr =  1.30E-07,  avg # of iterations =  4.0

     negative rho (up, down):  4.682E-05 0.000E+00

     total cpu time spent up to now is      479.3 secs

     total energy              =     -77.18287947 Ry
     Harris-Foulkes estimate   =     -77.18288537 Ry
     estimated scf accuracy    <       0.00004099 Ry

     iteration #  8     ecut=    80.00 Ry     beta= 0.40
     Davidson diagonalization with overlap
     ethr =  8.04E-08,  avg # of iterations =  1.0

     negative rho (up, down):  4.685E-05 0.000E+00

     total cpu time spent up to now is      483.8 secs

     total energy              =     -77.18287684 Ry
     Harris-Foulkes estimate   =     -77.18288201 Ry
     estimated scf accuracy    <       0.00001715 Ry

     iteration #  9     ecut=    80.00 Ry     beta= 0.40
     Davidson diagonalization with overlap
     ethr =  3.36E-08,  avg # of iterations =  3.0

     negative rho (up, down):  4.686E-05 0.000E+00

     total cpu time spent up to now is      489.0 secs

     total energy              =     -77.18287921 Ry
     Harris-Foulkes estimate   =     -77.18288048 Ry
     estimated scf accuracy    <       0.00000800 Ry

     iteration # 10     ecut=    80.00 Ry     beta= 0.40
     Davidson diagonalization with overlap
     ethr =  1.57E-08,  avg # of iterations =  3.0

     negative rho (up, down):  4.686E-05 0.000E+00

     total cpu time spent up to now is      493.9 secs

     total energy              =     -77.18287970 Ry
     Harris-Foulkes estimate   =     -77.18288001 Ry
     estimated scf accuracy    <       0.00000186 Ry

     iteration # 11     ecut=    80.00 Ry     beta= 0.40
     Davidson diagonalization with overlap
     ethr =  3.64E-09,  avg # of iterations =  6.0

     negative rho (up, down):  4.687E-05 0.000E+00

     total cpu time spent up to now is      499.0 secs

     End of self-consistent calculation

          k = 0.0000 0.0000 0.0000 (252395 PWs)   bands (ev):

    -9.9934  -9.1207  -9.1163  -9.1162  -9.0057  -9.0056  -8.3836  -7.5053
    -7.4437  -7.4437  -6.8237  -5.8529  -5.8028  -5.8027  -5.6443  -5.6441
    -4.8052  -4.8051  -3.9953  -3.8675  -3.2901  -3.2347  -3.2345  -3.1776
    -3.1159  -3.1158  -3.1128  -3.0593  -3.0592  -2.6762  -2.6760

     the Fermi energy is    -3.0847 ev

!    total energy              =     -77.18287966 Ry
     Harris-Foulkes estimate   =     -77.18287990 Ry
     estimated scf accuracy    <       0.00000043 Ry

     The total energy is the sum of the following terms:

     one-electron contribution =    -269.78940610 Ry
     hartree contribution      =     139.54623491 Ry
     xc contribution           =     -33.45859223 Ry
     ewald contribution        =      86.62981778 Ry
     smearing contrib. (-TS)   =      -0.11093402 Ry

     convergence has been achieved in  11 iterations

     negative rho (up, down):  4.687E-05 0.000E+00

     Forces acting on atoms (cartesian axes, Ry/au):

     atom    1 type  1   force =     0.01491394   -0.00860126    0.00000000
     atom    2 type  1   force =    -0.01488675   -0.00859487    0.00000000
     atom    3 type  1   force =    -0.01206005    0.00286737    0.00000000
     atom    4 type  1   force =    -0.00519305   -0.00299821    0.00000000
     atom    5 type  1   force =     0.00357139   -0.01185441    0.00000000
     atom    6 type  1   force =     0.00000893   -0.00366141    0.00000000
     atom    7 type  1   force =    -0.00354681   -0.01187799    0.00000000
     atom    8 type  1   force =     0.00000806    0.01721648    0.00000000
     atom    9 type  1   force =    -0.00848052    0.00902012    0.00000000
     atom   10 type  1   force =    -0.00316641    0.00183844    0.00000000
     atom   11 type  1   force =     0.00001131    0.00000653    0.00000000
     atom   12 type  1   force =    -0.00000880    0.00595642    0.00000000
     atom   13 type  1   force =     0.01203145    0.00284043    0.00000000
     atom   14 type  1   force =     0.00515401   -0.00298583    0.00000000
     atom   15 type  1   force =     0.00000854    0.00000493    0.00000000
     atom   16 type  1   force =     0.00315914    0.00182393    0.00000000
     atom   17 type  1   force =     0.00847561    0.00899932    0.00000000

     Total force =     0.044214     Total SCF correction =     0.000493


     Computing stress (Cartesian axis) and pressure


     negative rho (up, down):  4.687E-05 0.000E+00
          total   stress  (Ry/bohr**3)                   (kbar)     P=   -1.55
  -0.00001584   0.00000000   0.00000000         -2.33      0.00      0.00
   0.00000000  -0.00001584   0.00000000          0.00     -2.33      0.00
  -0.00000000  -0.00000000  -0.00000000         -0.00     -0.00     -0.00


     number of scf cycles    =   6
     number of bfgs steps    =   5

     enthalpy old            =     -77.1758866003 Ry
     enthalpy new            =     -77.1828796560 Ry

     CASE: enthalpy_new < enthalpy_old

     new trust radius        =       0.1687435780 bohr
     new conv_thr            =       0.0000010000 Ry

     new unit-cell volume =  20669.86512 a.u.^3 (  3062.95796 Ang^3 )
     density =      0.27632 g/cm^3

CELL_PARAMETERS (alat= 25.26072511)
   0.994817850   0.000001226   0.000000000
  -0.497407864   0.861535692   0.000000000
   0.000000000   0.000000000   1.496177267

ATOMIC_POSITIONS (angstrom)
Al       0.211145230   2.437352727   0.000000000
Al       4.221539117   2.437343621   0.000000000
Al       6.659312139   1.315063802   0.000000000
Al      -2.153665827   6.434296537   0.000000000
Al      -0.035713952   5.109494347   0.000000000
Al       2.216323726   6.396254133   0.000000000
Al       4.468535310   5.109636778   0.000000000
Al      -4.432684408  10.480771983   0.000000000
Al      -2.241969725   8.930877641   0.000000000
Al      -0.001616740  10.237875909   0.000000000
Al       2.216433197   8.957373042   0.000000000
Al       8.865559601   2.487025326   0.000000000
Al      11.071703028   1.315072592   0.000000000
Al       6.586574976   6.434378687   0.000000000
Al       8.865362439   5.118454923   0.000000000
Al       4.434448631  10.237982397   0.000000000
Al       6.674738365   8.930911188   0.000000000



     Writing output data file 2al_planar_2x2_vcr.save/
     NEW-OLD atomic charge density approx. for the potential

     negative rho (up, down):  4.723E-05 0.000E+00
     extrapolated charge   50.78975, renormalised to   51.00000

     total cpu time spent up to now is      527.2 secs

     Self-consistent Calculation

     iteration #  1     ecut=    80.00 Ry     beta= 0.40
     Davidson diagonalization with overlap
     ethr =  1.00E-06,  avg # of iterations =  9.0

     negative rho (up, down):  4.788E-05 0.000E+00

     total cpu time spent up to now is      538.0 secs

     total energy              =     -77.18567517 Ry
     Harris-Foulkes estimate   =     -78.21004206 Ry
     estimated scf accuracy    <       0.00914078 Ry

     iteration #  2     ecut=    80.00 Ry     beta= 0.40
     Davidson diagonalization with overlap
     ethr =  1.79E-05,  avg # of iterations = 11.0

     negative rho (up, down):  4.741E-05 0.000E+00

     total cpu time spent up to now is      545.3 secs

     total energy              =     -77.18609010 Ry
     Harris-Foulkes estimate   =     -77.19691050 Ry
     estimated scf accuracy    <       0.06046016 Ry

     iteration #  3     ecut=    80.00 Ry     beta= 0.40
     Davidson diagonalization with overlap
     ethr =  1.79E-05,  avg # of iterations =  4.0

     negative rho (up, down):  4.717E-05 0.000E+00

     total cpu time spent up to now is      551.0 secs

     total energy              =     -77.19039776 Ry
     Harris-Foulkes estimate   =     -77.19072703 Ry
     estimated scf accuracy    <       0.00256781 Ry

     iteration #  4     ecut=    80.00 Ry     beta= 0.40
     Davidson diagonalization with overlap
     ethr =  5.03E-06,  avg # of iterations =  3.0

     negative rho (up, down):  4.673E-05 0.000E+00

     total cpu time spent up to now is      556.0 secs

     total energy              =     -77.19034586 Ry
     Harris-Foulkes estimate   =     -77.19055161 Ry
     estimated scf accuracy    <       0.00149759 Ry

     iteration #  5     ecut=    80.00 Ry     beta= 0.40
     Davidson diagonalization with overlap
     ethr =  2.94E-06,  avg # of iterations =  1.0

     negative rho (up, down):  4.543E-05 0.000E+00

     total cpu time spent up to now is      560.8 secs

     total energy              =     -77.19013017 Ry
     Harris-Foulkes estimate   =     -77.19044735 Ry
     estimated scf accuracy    <       0.00105778 Ry

     iteration #  6     ecut=    80.00 Ry     beta= 0.40
     Davidson diagonalization with overlap
     ethr =  2.07E-06,  avg # of iterations =  4.0

     negative rho (up, down):  4.564E-05 0.000E+00

     total cpu time spent up to now is      566.4 secs

     total energy              =     -77.19034486 Ry
     Harris-Foulkes estimate   =     -77.19037927 Ry
     estimated scf accuracy    <       0.00018319 Ry

     iteration #  7     ecut=    80.00 Ry     beta= 0.40
     Davidson diagonalization with overlap
     ethr =  3.59E-07,  avg # of iterations =  3.0

     negative rho (up, down):  4.574E-05 0.000E+00

     total cpu time spent up to now is      571.8 secs

     total energy              =     -77.19035038 Ry
     Harris-Foulkes estimate   =     -77.19036484 Ry
     estimated scf accuracy    <       0.00010842 Ry

     iteration #  8     ecut=    80.00 Ry     beta= 0.40
     Davidson diagonalization with overlap
     ethr =  2.13E-07,  avg # of iterations =  1.0

     negative rho (up, down):  4.601E-05 0.000E+00

     total cpu time spent up to now is      576.7 secs

     total energy              =     -77.19033230 Ry
     Harris-Foulkes estimate   =     -77.19035461 Ry
     estimated scf accuracy    <       0.00006698 Ry

     iteration #  9     ecut=    80.00 Ry     beta= 0.40
     Davidson diagonalization with overlap
     ethr =  1.31E-07,  avg # of iterations =  4.0

     negative rho (up, down):  4.603E-05 0.000E+00

     total cpu time spent up to now is      582.3 secs

     total energy              =     -77.19034447 Ry
     Harris-Foulkes estimate   =     -77.19034576 Ry
     estimated scf accuracy    <       0.00000679 Ry

     iteration # 10     ecut=    80.00 Ry     beta= 0.40
     Davidson diagonalization with overlap
     c_bands:  2 eigenvalues not converged
     ethr =  1.33E-08,  avg # of iterations = 20.0

     negative rho (up, down):  4.606E-05 0.000E+00

     total cpu time spent up to now is      590.2 secs

     total energy              =     -77.19088042 Ry
     Harris-Foulkes estimate   =     -77.19088651 Ry
     estimated scf accuracy    <       0.00025718 Ry

     iteration # 11     ecut=    80.00 Ry     beta= 0.40
     Davidson diagonalization with overlap
     ethr =  1.33E-08,  avg # of iterations =  4.0

     negative rho (up, down):  4.602E-05 0.000E+00

     total cpu time spent up to now is      595.5 secs

     total energy              =     -77.19087749 Ry
     Harris-Foulkes estimate   =     -77.19088066 Ry
     estimated scf accuracy    <       0.00023208 Ry

     iteration # 12     ecut=    80.00 Ry     beta= 0.40
     Davidson diagonalization with overlap
     ethr =  1.33E-08,  avg # of iterations =  1.0

     negative rho (up, down):  4.606E-05 0.000E+00

     total cpu time spent up to now is      599.8 secs

     total energy              =     -77.19086642 Ry
     Harris-Foulkes estimate   =     -77.19087781 Ry
     estimated scf accuracy    <       0.00021379 Ry

     iteration # 13     ecut=    80.00 Ry     beta= 0.40
     Davidson diagonalization with overlap
     ethr =  1.33E-08,  avg # of iterations =  4.0

     negative rho (up, down):  4.607E-05 0.000E+00

     total cpu time spent up to now is      604.6 secs

     total energy              =     -77.19086207 Ry
     Harris-Foulkes estimate   =     -77.19086737 Ry
     estimated scf accuracy    <       0.00016419 Ry

     iteration # 14     ecut=    80.00 Ry     beta= 0.40
     Davidson diagonalization with overlap
     ethr =  1.33E-08,  avg # of iterations =  1.0

     negative rho (up, down):  4.607E-05 0.000E+00

     total cpu time spent up to now is      609.3 secs

     total energy              =     -77.19086192 Ry
     Harris-Foulkes estimate   =     -77.19086236 Ry
     estimated scf accuracy    <       0.00014102 Ry

     iteration # 15     ecut=    80.00 Ry     beta= 0.40
     Davidson diagonalization with overlap
     ethr =  1.33E-08,  avg # of iterations =  1.0

     negative rho (up, down):  4.605E-05 0.000E+00

     total cpu time spent up to now is      613.8 secs

     total energy              =     -77.19086890 Ry
     Harris-Foulkes estimate   =     -77.19086198 Ry
     estimated scf accuracy    <       0.00013839 Ry

     iteration # 16     ecut=    80.00 Ry     beta= 0.40
     Davidson diagonalization with overlap
     ethr =  1.33E-08,  avg # of iterations =  1.0

     negative rho (up, down):  4.613E-05 0.000E+00

     total cpu time spent up to now is      618.2 secs

     total energy              =     -77.19085005 Ry
     Harris-Foulkes estimate   =     -77.19086911 Ry
     estimated scf accuracy    <       0.00016868 Ry

     iteration # 17     ecut=    80.00 Ry     beta= 0.40
     Davidson diagonalization with overlap
     ethr =  1.33E-08,  avg # of iterations =  2.0

     negative rho (up, down):  4.616E-05 0.000E+00

     total cpu time spent up to now is      623.2 secs

     total energy              =     -77.19084824 Ry
     Harris-Foulkes estimate   =     -77.19085195 Ry
     estimated scf accuracy    <       0.00008892 Ry

     iteration # 18     ecut=    80.00 Ry     beta= 0.40
     Davidson diagonalization with overlap
     ethr =  1.33E-08,  avg # of iterations =  1.0

     negative rho (up, down):  4.629E-05 0.000E+00

     total cpu time spent up to now is      627.6 secs

     total energy              =     -77.19082434 Ry
     Harris-Foulkes estimate   =     -77.19084855 Ry
     estimated scf accuracy    <       0.00007342 Ry

     iteration # 19     ecut=    80.00 Ry     beta= 0.40
     Davidson diagonalization with overlap
     ethr =  1.33E-08,  avg # of iterations =  5.0

     negative rho (up, down):  4.629E-05 0.000E+00

     total cpu time spent up to now is      634.3 secs

     total energy              =     -77.19083454 Ry
     Harris-Foulkes estimate   =     -77.19083500 Ry
     estimated scf accuracy    <       0.00000171 Ry

     iteration # 20     ecut=    80.00 Ry     beta= 0.40
     Davidson diagonalization with overlap
     ethr =  3.35E-09,  avg # of iterations =  3.0

     negative rho (up, down):  4.626E-05 0.000E+00

     total cpu time spent up to now is      639.1 secs

     End of self-consistent calculation

          k = 0.0000 0.0000 0.0000 (252395 PWs)   bands (ev):

    -9.9939  -9.1253  -9.1252  -9.1012  -8.9845  -8.9843  -8.4028  -7.4896
    -7.4327  -7.4326  -6.8937  -5.8297  -5.7776  -5.7776  -5.6603  -5.6602
    -4.8357  -4.8357  -4.1080  -3.9930  -3.3114  -3.2019  -3.2018  -3.1160
    -3.1159  -3.1040  -3.0912  -3.0423  -3.0422  -2.6451  -2.6449

     the Fermi energy is    -3.0628 ev

!    total energy              =     -77.19083474 Ry
     Harris-Foulkes estimate   =     -77.19083481 Ry
     estimated scf accuracy    <       0.00000019 Ry

     The total energy is the sum of the following terms:

     one-electron contribution =    -270.30451370 Ry
     hartree contribution      =     139.77462484 Ry
     xc contribution           =     -33.43098070 Ry
     ewald contribution        =      86.88112529 Ry
     smearing contrib. (-TS)   =      -0.11109048 Ry

     convergence has been achieved in  20 iterations

     negative rho (up, down):  4.626E-05 0.000E+00

     Forces acting on atoms (cartesian axes, Ry/au):

     atom    1 type  1   force =     0.00914019   -0.00526907    0.00000000
     atom    2 type  1   force =    -0.00912338   -0.00526739    0.00000000
     atom    3 type  1   force =    -0.01983507    0.00132682    0.00000000
     atom    4 type  1   force =    -0.01120911   -0.00647158    0.00000000
     atom    5 type  1   force =     0.00877550   -0.01783164    0.00000000
     atom    6 type  1   force =    -0.00000335   -0.00555738    0.00000000
     atom    7 type  1   force =    -0.00876847   -0.01784108    0.00000000
     atom    8 type  1   force =     0.00000695    0.01055017    0.00000000
     atom    9 type  1   force =    -0.01105491    0.01651562    0.00000000
     atom   10 type  1   force =    -0.00481450    0.00277579    0.00000000
     atom   11 type  1   force =     0.00001159    0.00000669    0.00000000
     atom   12 type  1   force =    -0.00002492    0.01291487    0.00000000
     atom   13 type  1   force =     0.01984488    0.00131105    0.00000000
     atom   14 type  1   force =     0.01117215   -0.00647902    0.00000000
     atom   15 type  1   force =     0.00002663    0.00001538    0.00000000
     atom   16 type  1   force =     0.00479799    0.00277012    0.00000000
     atom   17 type  1   force =     0.01105784    0.01653064    0.00000000

     Total force =     0.057433     Total SCF correction =     0.000184


     Computing stress (Cartesian axis) and pressure


     negative rho (up, down):  4.626E-05 0.000E+00
          total   stress  (Ry/bohr**3)                   (kbar)     P=   -1.92
  -0.00001953  -0.00000001  -0.00000000         -2.87     -0.00     -0.00
  -0.00000001  -0.00001952  -0.00000000         -0.00     -2.87     -0.00
  -0.00000000  -0.00000000  -0.00000001         -0.00     -0.00     -0.00


     number of scf cycles    =   7
     number of bfgs steps    =   6

     enthalpy old            =     -77.1828796560 Ry
     enthalpy new            =     -77.1908347438 Ry

     CASE: enthalpy_new < enthalpy_old

     new trust radius        =       0.2525949773 bohr
     new conv_thr            =       0.0000010000 Ry

     new unit-cell volume =  20527.79565 a.u.^3 (  3041.90544 Ang^3 )
     density =      0.27824 g/cm^3

CELL_PARAMETERS (alat= 25.26072511)
   0.991393357   0.000001611   0.000000000
  -0.495695283   0.858569415   0.000000000
   0.000000000   0.000000000   1.496177267

ATOMIC_POSITIONS (angstrom)
Al       0.325756333   2.362384627   0.000000000
Al       4.091647135   2.362350324   0.000000000
Al       6.627308106   1.329133108   0.000000000
Al      -2.120910845   6.426773174   0.000000000
Al      -0.047147571   5.074671770   0.000000000
Al       2.208658937   6.369367582   0.000000000
Al       4.464717668   5.074885699   0.000000000
Al      -4.417410326  10.577860410   0.000000000
Al      -2.254950968   8.898735503   0.000000000
Al      -0.005840656  10.205029467   0.000000000
Al       2.208814668   8.926540025   0.000000000
Al       8.835074184   2.449230082   0.000000000
Al      11.042725619   1.329134131   0.000000000
Al       6.538600736   6.426874848   0.000000000
Al       8.834799212   5.100809113   0.000000000
Al       4.423427800  10.205184931   0.000000000
Al       6.672427309   8.898785000   0.000000000



     Writing output data file 2al_planar_2x2_vcr.save/
     NEW-OLD atomic charge density approx. for the potential

     negative rho (up, down):  4.758E-05 0.000E+00
     extrapolated charge   50.64733, renormalised to   51.00000

     total cpu time spent up to now is      667.0 secs

     Self-consistent Calculation

     iteration #  1     ecut=    80.00 Ry     beta= 0.40
     Davidson diagonalization with overlap
     ethr =  1.00E-06,  avg # of iterations = 10.0

     negative rho (up, down):  4.811E-05 0.000E+00

     total cpu time spent up to now is      678.1 secs

     total energy              =     -77.18627083 Ry
     Harris-Foulkes estimate   =     -78.91359930 Ry
     estimated scf accuracy    <       0.01975595 Ry

     iteration #  2     ecut=    80.00 Ry     beta= 0.40
     Davidson diagonalization with overlap
     ethr =  3.87E-05,  avg # of iterations =  8.0

     negative rho (up, down):  4.731E-05 0.000E+00

     total cpu time spent up to now is      684.9 secs

     total energy              =     -77.18831836 Ry
     Harris-Foulkes estimate   =     -77.21667620 Ry
     estimated scf accuracy    <       0.17395343 Ry

     iteration #  3     ecut=    80.00 Ry     beta= 0.40
     Davidson diagonalization with overlap
     ethr =  3.87E-05,  avg # of iterations =  4.0

     negative rho (up, down):  4.677E-05 0.000E+00

     total cpu time spent up to now is      690.5 secs

     total energy              =     -77.19959233 Ry
     Harris-Foulkes estimate   =     -77.20022014 Ry
     estimated scf accuracy    <       0.00680191 Ry

     iteration #  4     ecut=    80.00 Ry     beta= 0.40
     Davidson diagonalization with overlap
     ethr =  1.33E-05,  avg # of iterations =  2.0

     negative rho (up, down):  4.544E-05 0.000E+00

     total cpu time spent up to now is      695.1 secs

     total energy              =     -77.19905461 Ry
     Harris-Foulkes estimate   =     -77.19979000 Ry
     estimated scf accuracy    <       0.00457535 Ry

     iteration #  5     ecut=    80.00 Ry     beta= 0.40
     Davidson diagonalization with overlap
     ethr =  8.97E-06,  avg # of iterations =  1.0

     negative rho (up, down):  4.369E-05 0.000E+00

     total cpu time spent up to now is      699.6 secs

     total energy              =     -77.19853157 Ry
     Harris-Foulkes estimate   =     -77.19940124 Ry
     estimated scf accuracy    <       0.00326192 Ry

     iteration #  6     ecut=    80.00 Ry     beta= 0.40
     Davidson diagonalization with overlap
     ethr =  6.40E-06,  avg # of iterations =  4.0

     negative rho (up, down):  4.384E-05 0.000E+00

     total cpu time spent up to now is      704.8 secs

     total energy              =     -77.19909370 Ry
     Harris-Foulkes estimate   =     -77.19916877 Ry
     estimated scf accuracy    <       0.00050924 Ry

     iteration #  7     ecut=    80.00 Ry     beta= 0.40
     Davidson diagonalization with overlap
     ethr =  9.99E-07,  avg # of iterations =  5.0

     negative rho (up, down):  4.417E-05 0.000E+00

     total cpu time spent up to now is      710.4 secs

     total energy              =     -77.19911988 Ry
     Harris-Foulkes estimate   =     -77.19920943 Ry
     estimated scf accuracy    <       0.00052078 Ry

     iteration #  8     ecut=    80.00 Ry     beta= 0.40
     Davidson diagonalization with overlap
     ethr =  9.99E-07,  avg # of iterations =  1.0

     negative rho (up, down):  4.452E-05 0.000E+00

     total cpu time spent up to now is      714.9 secs

     total energy              =     -77.19909400 Ry
     Harris-Foulkes estimate   =     -77.19913903 Ry
     estimated scf accuracy    <       0.00018780 Ry

     iteration #  9     ecut=    80.00 Ry     beta= 0.40
     Davidson diagonalization with overlap
     ethr =  3.68E-07,  avg # of iterations =  4.0

     negative rho (up, down):  4.454E-05 0.000E+00

     total cpu time spent up to now is      720.3 secs

     total energy              =     -77.19912004 Ry
     Harris-Foulkes estimate   =     -77.19912143 Ry
     estimated scf accuracy    <       0.00000715 Ry

     iteration # 10     ecut=    80.00 Ry     beta= 0.40
     Davidson diagonalization with overlap
     ethr =  1.40E-08,  avg # of iterations = 20.0

     negative rho (up, down):  4.465E-05 0.000E+00

     total cpu time spent up to now is      728.4 secs

     total energy              =     -77.19921773 Ry
     Harris-Foulkes estimate   =     -77.19922542 Ry
     estimated scf accuracy    <       0.00053055 Ry

     iteration # 11     ecut=    80.00 Ry     beta= 0.40
     Davidson diagonalization with overlap
     ethr =  1.40E-08,  avg # of iterations =  2.0

     negative rho (up, down):  4.469E-05 0.000E+00

     total cpu time spent up to now is      733.2 secs

     total energy              =     -77.19921095 Ry
     Harris-Foulkes estimate   =     -77.19921875 Ry
     estimated scf accuracy    <       0.00049952 Ry

     iteration # 12     ecut=    80.00 Ry     beta= 0.40
     Davidson diagonalization with overlap
     ethr =  1.40E-08,  avg # of iterations =  1.0

     negative rho (up, down):  4.481E-05 0.000E+00

     total cpu time spent up to now is      737.8 secs

     total energy              =     -77.19918944 Ry
     Harris-Foulkes estimate   =     -77.19921129 Ry
     estimated scf accuracy    <       0.00047416 Ry

     iteration # 13     ecut=    80.00 Ry     beta= 0.40
     Davidson diagonalization with overlap
     ethr =  1.40E-08,  avg # of iterations =  4.0

     negative rho (up, down):  4.472E-05 0.000E+00

     total cpu time spent up to now is      743.2 secs

     total energy              =     -77.19919763 Ry
     Harris-Foulkes estimate   =     -77.19919114 Ry
     estimated scf accuracy    <       0.00035320 Ry

     iteration # 14     ecut=    80.00 Ry     beta= 0.40
     Davidson diagonalization with overlap
     ethr =  1.40E-08,  avg # of iterations =  2.0

     negative rho (up, down):  4.472E-05 0.000E+00

     total cpu time spent up to now is      747.9 secs

     total energy              =     -77.19919633 Ry
     Harris-Foulkes estimate   =     -77.19919815 Ry
     estimated scf accuracy    <       0.00038452 Ry

     iteration # 15     ecut=    80.00 Ry     beta= 0.40
     Davidson diagonalization with overlap
     ethr =  1.40E-08,  avg # of iterations =  1.0

     negative rho (up, down):  4.483E-05 0.000E+00

     total cpu time spent up to now is      752.5 secs

     total energy              =     -77.19916456 Ry
     Harris-Foulkes estimate   =     -77.19919638 Ry
     estimated scf accuracy    <       0.00037789 Ry

     iteration # 16     ecut=    80.00 Ry     beta= 0.40
     Davidson diagonalization with overlap
     ethr =  1.40E-08,  avg # of iterations =  2.0

     negative rho (up, down):  4.489E-05 0.000E+00

     total cpu time spent up to now is      758.1 secs

     total energy              =     -77.19914221 Ry
     Harris-Foulkes estimate   =     -77.19916663 Ry
     estimated scf accuracy    <       0.00024078 Ry

     iteration # 17     ecut=    80.00 Ry     beta= 0.40
     Davidson diagonalization with overlap
     ethr =  1.40E-08,  avg # of iterations =  4.0

     negative rho (up, down):  4.493E-05 0.000E+00

     total cpu time spent up to now is      764.2 secs

     total energy              =     -77.19913401 Ry
     Harris-Foulkes estimate   =     -77.19914487 Ry
     estimated scf accuracy    <       0.00011594 Ry

     iteration # 18     ecut=    80.00 Ry     beta= 0.40
     Davidson diagonalization with overlap
     ethr =  1.40E-08,  avg # of iterations =  2.0

     negative rho (up, down):  4.496E-05 0.000E+00

     total cpu time spent up to now is      769.0 secs

     total energy              =     -77.19911358 Ry
     Harris-Foulkes estimate   =     -77.19913472 Ry
     estimated scf accuracy    <       0.00007112 Ry

     iteration # 19     ecut=    80.00 Ry     beta= 0.40
     Davidson diagonalization with overlap
     ethr =  1.40E-08,  avg # of iterations =  5.0

     negative rho (up, down):  4.494E-05 0.000E+00

     total cpu time spent up to now is      775.9 secs

     total energy              =     -77.19912184 Ry
     Harris-Foulkes estimate   =     -77.19912211 Ry
     estimated scf accuracy    <       0.00000125 Ry

     iteration # 20     ecut=    80.00 Ry     beta= 0.40
     Davidson diagonalization with overlap
     ethr =  2.45E-09,  avg # of iterations =  6.0

     negative rho (up, down):  4.493E-05 0.000E+00

     total cpu time spent up to now is      781.2 secs

     End of self-consistent calculation

          k = 0.0000 0.0000 0.0000 (252395 PWs)   bands (ev):

   -10.0310  -9.1752  -9.1705  -9.1069  -8.9879  -8.9862  -8.4888  -7.5049
    -7.4385  -7.4356  -7.0313  -5.8335  -5.8020  -5.8012  -5.6938  -5.6882
    -4.9034  -4.9015  -4.4679  -4.0162  -3.3588  -3.1877  -3.1855  -3.1425
    -3.1397  -3.0846  -3.0379  -3.0373  -3.0235  -2.6947  -2.6414

     the Fermi energy is    -3.0597 ev

!    total energy              =     -77.19912186 Ry
     Harris-Foulkes estimate   =     -77.19912204 Ry
     estimated scf accuracy    <       0.00000025 Ry

     The total energy is the sum of the following terms:

     one-electron contribution =    -271.24227132 Ry
     hartree contribution      =     140.13976272 Ry
     xc contribution           =     -33.38049978 Ry
     ewald contribution        =      87.39888239 Ry
     smearing contrib. (-TS)   =      -0.11499587 Ry

     convergence has been achieved in  20 iterations

     negative rho (up, down):  4.493E-05 0.000E+00

     Forces acting on atoms (cartesian axes, Ry/au):

     atom    1 type  1   force =     0.00322410   -0.00142874    0.00000000
     atom    2 type  1   force =    -0.00335722   -0.00193829    0.00000000
     atom    3 type  1   force =    -0.02941979   -0.00096853    0.00000000
     atom    4 type  1   force =    -0.01653995   -0.00954935    0.00000000
     atom    5 type  1   force =     0.01399692   -0.02537620    0.00000000
     atom    6 type  1   force =     0.00102536   -0.00637965    0.00000000
     atom    7 type  1   force =    -0.01554867   -0.02499402    0.00000000
     atom    8 type  1   force =     0.00037472    0.00350652    0.00000000
[...]
     atom    5 type  1   force =    -0.00039245   -0.00009792    0.00000000
     atom    6 type  1   force =    -0.00038594   -0.00039126    0.00000000
     atom    7 type  1   force =    -0.00045515   -0.00000727    0.00000000
     atom    8 type  1   force =     0.00030371   -0.00044608    0.00000000
     atom    9 type  1   force =    -0.00028103   -0.00029091    0.00000000
     atom   10 type  1   force =    -0.00053181   -0.00013860    0.00000000
     atom   11 type  1   force =     0.00078680    0.00045426    0.00000000
     atom   12 type  1   force =     0.00078109   -0.00062968    0.00000000
     atom   13 type  1   force =    -0.00070091    0.00096190    0.00000000
     atom   14 type  1   force =    -0.00015477    0.00099129    0.00000000
     atom   15 type  1   force =     0.00009098    0.00005253    0.00000000
     atom   16 type  1   force =    -0.00103802   -0.00059930    0.00000000
     atom   17 type  1   force =     0.00048257   -0.00108796    0.00000000

     Total force =     0.003512     Total SCF correction =     0.000038


     Computing stress (Cartesian axis) and pressure


     negative rho (up, down):  8.527E-06 0.000E+00
          total   stress  (Ry/bohr**3)                   (kbar)     P=    0.06
   0.00000054  -0.00000009   0.00000000          0.08     -0.01      0.00
  -0.00000009   0.00000065   0.00000000         -0.01      0.10      0.00
   0.00000000   0.00000000  -0.00000001          0.00      0.00     -0.00


     number of scf cycles    = 117
     number of bfgs steps    = 115

     enthalpy old            =     -78.0008456897 Ry
     enthalpy new            =     -78.0008604263 Ry

     CASE: enthalpy_new < enthalpy_old


     WARNING: bfgs curvature condition failed, Theta= 0.547
     new trust radius        =       0.0433467061 bohr
     new conv_thr            =       0.0000000147 Ry

     new unit-cell volume =  15401.69289 a.u.^3 (  2282.29539 Ang^3 )
     density =      0.37084 g/cm^3

CELL_PARAMETERS (alat= 25.26072511)
   0.775320415  -0.194507876   0.000000000
  -0.556108970   0.963208990   0.000000000
   0.000000000   0.000000000   1.496177267

ATOMIC_POSITIONS (angstrom)
Al      -0.262049267   2.529597167   0.000000000
Al       2.246838330   1.297253942   0.000000000
Al       4.328919858  -0.335627524   0.000000000
Al      -1.765466363   7.564501812   0.000000000
Al      -1.635523980   4.805366495   0.000000000
Al       0.545432070   6.184726534   0.000000000
Al       1.873791538   3.916803593   0.000000000
Al      -5.374092506  11.383962695   0.000000000
Al      -4.089947174   9.056576296   0.000000000
Al      -1.804944669  10.255722589   0.000000000
Al       0.521738976   8.885018929   0.000000000
Al       6.359473598   1.112725566   0.000000000
Al       7.799699140  -1.173108752   0.000000000
Al       4.143342623   4.951201138   0.000000000
Al       6.348930614   3.665596525   0.000000000
Al       2.775694422  10.186382691   0.000000000
Al       2.883894080   7.341363625   0.000000000



     Writing output data file 2al_planar_2x2_vcr.save/
     NEW-OLD atomic charge density approx. for the potential

     negative rho (up, down):  1.037E-05 0.000E+00
     extrapolated charge   50.98902, renormalised to   51.00000

     total cpu time spent up to now is     9843.6 secs

     Self-consistent Calculation

     iteration #  1     ecut=    80.00 Ry     beta= 0.40
     Davidson diagonalization with overlap
     ethr =  1.00E-06,  avg # of iterations =  4.0

     negative rho (up, down):  9.228E-06 0.000E+00

     total cpu time spent up to now is     9852.2 secs

     total energy              =     -78.00086479 Ry
     Harris-Foulkes estimate   =     -78.07313679 Ry
     estimated scf accuracy    <       0.00011929 Ry

     iteration #  2     ecut=    80.00 Ry     beta= 0.40
     Davidson diagonalization with overlap
     ethr =  2.34E-07,  avg # of iterations =  3.0

     negative rho (up, down):  8.764E-06 0.000E+00

     total cpu time spent up to now is     9857.6 secs

     total energy              =     -78.00087376 Ry
     Harris-Foulkes estimate   =     -78.00088295 Ry
     estimated scf accuracy    <       0.00004030 Ry

     iteration #  3     ecut=    80.00 Ry     beta= 0.40
     Davidson diagonalization with overlap
     ethr =  7.90E-08,  avg # of iterations =  3.0

     negative rho (up, down):  8.579E-06 0.000E+00

     total cpu time spent up to now is     9862.9 secs

     total energy              =     -78.00087412 Ry
     Harris-Foulkes estimate   =     -78.00088408 Ry
     estimated scf accuracy    <       0.00003872 Ry

     iteration #  4     ecut=    80.00 Ry     beta= 0.40
     Davidson diagonalization with overlap
     ethr =  7.59E-08,  avg # of iterations =  2.0

     negative rho (up, down):  8.514E-06 0.000E+00

     total cpu time spent up to now is     9868.1 secs

     total energy              =     -78.00087883 Ry
     Harris-Foulkes estimate   =     -78.00088063 Ry
     estimated scf accuracy    <       0.00000736 Ry

     iteration #  5     ecut=    80.00 Ry     beta= 0.40
     Davidson diagonalization with overlap
     ethr =  1.44E-08,  avg # of iterations =  3.0

     negative rho (up, down):  8.498E-06 0.000E+00

     total cpu time spent up to now is     9873.4 secs

     total energy              =     -78.00087984 Ry
     Harris-Foulkes estimate   =     -78.00088043 Ry
     estimated scf accuracy    <       0.00000203 Ry

     iteration #  6     ecut=    80.00 Ry     beta= 0.40
     Davidson diagonalization with overlap
     ethr =  3.98E-09,  avg # of iterations =  3.0

     negative rho (up, down):  8.491E-06 0.000E+00

     total cpu time spent up to now is     9879.0 secs

     total energy              =     -78.00088017 Ry
     Harris-Foulkes estimate   =     -78.00088040 Ry
     estimated scf accuracy    <       0.00000082 Ry

     iteration #  7     ecut=    80.00 Ry     beta= 0.40
     Davidson diagonalization with overlap
     ethr =  1.61E-09,  avg # of iterations =  2.0

     negative rho (up, down):  8.488E-06 0.000E+00

     total cpu time spent up to now is     9884.3 secs

     total energy              =     -78.00088030 Ry
     Harris-Foulkes estimate   =     -78.00088030 Ry
     estimated scf accuracy    <       0.00000004 Ry

     iteration #  8     ecut=    80.00 Ry     beta= 0.40
     Davidson diagonalization with overlap
     ethr =  8.59E-11,  avg # of iterations =  4.0

     negative rho (up, down):  8.486E-06 0.000E+00

     total cpu time spent up to now is     9891.8 secs

     total energy              =     -78.00088032 Ry
     Harris-Foulkes estimate   =     -78.00088032 Ry
     estimated scf accuracy    <       0.00000002 Ry

     iteration #  9     ecut=    80.00 Ry     beta= 0.40
     Davidson diagonalization with overlap
     ethr =  4.49E-11,  avg # of iterations =  2.0

     negative rho (up, down):  8.483E-06 0.000E+00

     total cpu time spent up to now is     9897.0 secs

     End of self-consistent calculation

          k = 0.0000 0.0000 0.0000 (252395 PWs)   bands (ev):

   -11.2085 -10.1864  -9.8897  -9.7733  -9.7282  -8.7905  -8.7853  -8.6346
    -7.8524  -6.5465  -6.2730  -5.9804  -5.8049  -5.4239  -5.1096  -5.0449
    -4.9666  -4.6637  -4.6376  -4.5090  -4.4926  -3.6338  -3.5911  -3.3933
    -3.3334  -3.2294  -2.3116  -2.2961  -2.1796  -1.7322  -1.5650

     the Fermi energy is    -2.9900 ev

!    total energy              =     -78.00088032 Ry
     Harris-Foulkes estimate   =     -78.00088032 Ry
     estimated scf accuracy    <          3.0E-09 Ry

     The total energy is the sum of the following terms:

     one-electron contribution =    -359.65860587 Ry
     hartree contribution      =     184.76574583 Ry
     xc contribution           =     -34.70048068 Ry
     ewald contribution        =     131.57838465 Ry
     smearing contrib. (-TS)   =       0.01407575 Ry

     convergence has been achieved in   9 iterations

     negative rho (up, down):  8.483E-06 0.000E+00

     Forces acting on atoms (cartesian axes, Ry/au):

     atom    1 type  1   force =    -0.00041912    0.00082265    0.00000000
     atom    2 type  1   force =     0.00204200    0.00117895    0.00000000
     atom    3 type  1   force =    -0.00012416   -0.00040379    0.00000000
     atom    4 type  1   force =     0.00076219    0.00044005    0.00000000
     atom    5 type  1   force =    -0.00060629   -0.00023810    0.00000000
     atom    6 type  1   force =    -0.00037297   -0.00050668    0.00000000
     atom    7 type  1   force =    -0.00041177    0.00009437    0.00000000
     atom    8 type  1   force =     0.00050288   -0.00077430    0.00000000
     atom    9 type  1   force =    -0.00050934   -0.00040602    0.00000000
     atom   10 type  1   force =    -0.00062528   -0.00006966    0.00000000
     atom   11 type  1   force =     0.00087417    0.00050470    0.00000000
     atom   12 type  1   force =     0.00104072   -0.00096373    0.00000000
     atom   13 type  1   force =    -0.00111495    0.00142055    0.00000000
     atom   14 type  1   force =    -0.00031425    0.00138315    0.00000000
     atom   15 type  1   force =     0.00003130    0.00001807    0.00000000
     atom   16 type  1   force =    -0.00142786   -0.00082437    0.00000000
     atom   17 type  1   force =     0.00067276   -0.00167586    0.00000000

     Total force =     0.004932     Total SCF correction =     0.000031


     Computing stress (Cartesian axis) and pressure


     negative rho (up, down):  8.483E-06 0.000E+00
          total   stress  (Ry/bohr**3)                   (kbar)     P=    0.08
   0.00000065  -0.00000022   0.00000000          0.10     -0.03      0.00
  -0.00000022   0.00000090   0.00000000         -0.03      0.13      0.00
   0.00000000   0.00000000  -0.00000001          0.00      0.00     -0.00


     number of scf cycles    = 118
     number of bfgs steps    = 116

     enthalpy old            =     -78.0008604263 Ry
     enthalpy new            =     -78.0008803199 Ry

     CASE: enthalpy_new < enthalpy_old


     WARNING: info= 53 for Hessian

     WARNING: bfgs curvature condition failed, Theta= 0.851
     new trust radius        =       0.0650167258 bohr
     new conv_thr            =       0.0000000199 Ry

     new unit-cell volume =  15396.94485 a.u.^3 (  2281.59180 Ang^3 )
     density =      0.37095 g/cm^3

CELL_PARAMETERS (alat= 25.26072511)
   0.775175138  -0.194569032   0.000000000
  -0.556089559   0.963174532   0.000000000
   0.000000000   0.000000000   1.496177267

ATOMIC_POSITIONS (angstrom)
Al      -0.255446176   2.515604329   0.000000000
Al       2.261954442   1.305980501   0.000000000
Al       4.331821683  -0.358036007   0.000000000
Al      -1.762246083   7.566055334   0.000000000
Al      -1.633087165   4.788844715   0.000000000
Al       0.537980592   6.195829600   0.000000000
Al       1.855834908   3.930518963   0.000000000
Al      -5.382648077  11.396217457   0.000000000
Al      -4.102774333   9.066488538   0.000000000
Al      -1.798791383  10.243258181   0.000000000
Al       0.525705369   8.887002682   0.000000000
Al       6.330956912   1.133228282   0.000000000
Al       7.788940783  -1.154775738   0.000000000
Al       4.146839824   4.916251346   0.000000000
Al       6.367266414   3.676180981   0.000000000
Al       2.774293770  10.185267335   0.000000000
Al       2.894389756   7.322876493   0.000000000



     Writing output data file 2al_planar_2x2_vcr.save/
     NEW-OLD atomic charge density approx. for the potential

     negative rho (up, down):  1.236E-05 0.000E+00
     extrapolated charge   50.98429, renormalised to   51.00000

     total cpu time spent up to now is     9925.4 secs

     Self-consistent Calculation

     iteration #  1     ecut=    80.00 Ry     beta= 0.40
     Davidson diagonalization with overlap
     ethr =  1.00E-06,  avg # of iterations =  5.0

     negative rho (up, down):  9.973E-06 0.000E+00

     total cpu time spent up to now is     9934.6 secs

     total energy              =     -78.00086998 Ry
     Harris-Foulkes estimate   =     -78.10435710 Ry
     estimated scf accuracy    <       0.00029040 Ry

     iteration #  2     ecut=    80.00 Ry     beta= 0.40
     Davidson diagonalization with overlap
     ethr =  5.69E-07,  avg # of iterations =  2.0

     negative rho (up, down):  9.019E-06 0.000E+00

     total cpu time spent up to now is     9940.1 secs

     total energy              =     -78.00088693 Ry
     Harris-Foulkes estimate   =     -78.00090930 Ry
     estimated scf accuracy    <       0.00009423 Ry

     iteration #  3     ecut=    80.00 Ry     beta= 0.40
     Davidson diagonalization with overlap
     ethr =  1.85E-07,  avg # of iterations =  3.0

     negative rho (up, down):  8.637E-06 0.000E+00

     total cpu time spent up to now is     9945.6 secs

     total energy              =     -78.00088962 Ry
     Harris-Foulkes estimate   =     -78.00091218 Ry
     estimated scf accuracy    <       0.00008734 Ry

     iteration #  4     ecut=    80.00 Ry     beta= 0.40
     Davidson diagonalization with overlap
     ethr =  1.71E-07,  avg # of iterations =  2.0

     negative rho (up, down):  8.476E-06 0.000E+00

     total cpu time spent up to now is     9951.0 secs

     total energy              =     -78.00090053 Ry
     Harris-Foulkes estimate   =     -78.00090462 Ry
     estimated scf accuracy    <       0.00001757 Ry

     iteration #  5     ecut=    80.00 Ry     beta= 0.40
     Davidson diagonalization with overlap
     ethr =  3.44E-08,  avg # of iterations =  3.0

     negative rho (up, down):  8.436E-06 0.000E+00

     total cpu time spent up to now is     9956.3 secs

     total energy              =     -78.00090262 Ry
     Harris-Foulkes estimate   =     -78.00090414 Ry
     estimated scf accuracy    <       0.00000520 Ry

     iteration #  6     ecut=    80.00 Ry     beta= 0.40
     Davidson diagonalization with overlap
     ethr =  1.02E-08,  avg # of iterations =  3.0

     negative rho (up, down):  8.421E-06 0.000E+00

     total cpu time spent up to now is     9962.0 secs

     total energy              =     -78.00090357 Ry
     Harris-Foulkes estimate   =     -78.00090399 Ry
     estimated scf accuracy    <       0.00000178 Ry

     iteration #  7     ecut=    80.00 Ry     beta= 0.40
     Davidson diagonalization with overlap
     ethr =  3.50E-09,  avg # of iterations =  2.0

     negative rho (up, down):  8.417E-06 0.000E+00

     total cpu time spent up to now is     9967.3 secs

     total energy              =     -78.00090385 Ry
     Harris-Foulkes estimate   =     -78.00090385 Ry
     estimated scf accuracy    <       0.00000008 Ry

     iteration #  8     ecut=    80.00 Ry     beta= 0.40
     Davidson diagonalization with overlap
     ethr =  1.63E-10,  avg # of iterations =  4.0

     negative rho (up, down):  8.414E-06 0.000E+00

     total cpu time spent up to now is     9974.5 secs

     total energy              =     -78.00090389 Ry
     Harris-Foulkes estimate   =     -78.00090389 Ry
     estimated scf accuracy    <       0.00000004 Ry

     iteration #  9     ecut=    80.00 Ry     beta= 0.40
     Davidson diagonalization with overlap
     ethr =  7.15E-11,  avg # of iterations =  2.0

     negative rho (up, down):  8.411E-06 0.000E+00

     total cpu time spent up to now is     9979.7 secs

     End of self-consistent calculation

          k = 0.0000 0.0000 0.0000 (252395 PWs)   bands (ev):

   -11.2061 -10.1858  -9.8892  -9.7649  -9.7278  -8.7841  -8.7815  -8.6314
    -7.8602  -6.5391  -6.2626  -5.9832  -5.8026  -5.4150  -5.1091  -5.0501
    -4.9648  -4.6582  -4.6360  -4.5065  -4.4923  -3.6443  -3.5906  -3.3935
    -3.3271  -3.2298  -2.3094  -2.2909  -2.1767  -1.7278  -1.5535

     the Fermi energy is    -2.9890 ev

!    total energy              =     -78.00090389 Ry
     Harris-Foulkes estimate   =     -78.00090389 Ry
     estimated scf accuracy    <          6.0E-09 Ry

     The total energy is the sum of the following terms:

     one-electron contribution =    -359.74013379 Ry
     hartree contribution      =     184.81026313 Ry
     xc contribution           =     -34.70130541 Ry
     ewald contribution        =     131.61609493 Ry
     smearing contrib. (-TS)   =       0.01417726 Ry

     convergence has been achieved in   9 iterations

     negative rho (up, down):  8.411E-06 0.000E+00

     Forces acting on atoms (cartesian axes, Ry/au):

     atom    1 type  1   force =    -0.00072220    0.00144589    0.00000000
     atom    2 type  1   force =     0.00292887    0.00169099    0.00000000
     atom    3 type  1   force =     0.00019007   -0.00029820    0.00000000
     atom    4 type  1   force =     0.00140568    0.00081157    0.00000000
     atom    5 type  1   force =    -0.00099837   -0.00049087    0.00000000
     atom    6 type  1   force =    -0.00023409   -0.00073211    0.00000000
     atom    7 type  1   force =    -0.00016322    0.00031371    0.00000000
     atom    8 type  1   force =     0.00089108   -0.00134839    0.00000000
     atom    9 type  1   force =    -0.00092429   -0.00061918    0.00000000
     atom   10 type  1   force =    -0.00075107    0.00016333    0.00000000
     atom   11 type  1   force =     0.00095945    0.00055394    0.00000000
     atom   12 type  1   force =     0.00124470   -0.00153682    0.00000000
     atom   13 type  1   force =    -0.00176105    0.00212461    0.00000000
     atom   14 type  1   force =    -0.00070857    0.00184635    0.00000000
     atom   15 type  1   force =    -0.00023311   -0.00013459    0.00000000
     atom   16 type  1   force =    -0.00208335   -0.00120282    0.00000000
     atom   17 type  1   force =     0.00095944   -0.00258742    0.00000000

     Total force =     0.007304     Total SCF correction =     0.000037


     Computing stress (Cartesian axis) and pressure


     negative rho (up, down):  8.411E-06 0.000E+00
          total   stress  (Ry/bohr**3)                   (kbar)     P=    0.10
   0.00000070  -0.00000053   0.00000000          0.10     -0.08      0.00
  -0.00000053   0.00000131   0.00000000         -0.08      0.19      0.00
   0.00000000   0.00000000  -0.00000001          0.00      0.00     -0.00


     number of scf cycles    = 119
     number of bfgs steps    = 117

     enthalpy old            =     -78.0008803199 Ry
     enthalpy new            =     -78.0009038861 Ry

     CASE: enthalpy_new < enthalpy_old


     WARNING: info= 53 for Hessian

     WARNING: bfgs curvature condition failed, Theta= 0.958
     new trust radius        =       0.0975184406 bohr
     new conv_thr            =       0.0000000236 Ry

     new unit-cell volume =  15389.34202 a.u.^3 (  2280.46518 Ang^3 )
     density =      0.37114 g/cm^3

CELL_PARAMETERS (alat= 25.26072511)
   0.774935009  -0.194694465   0.000000000
  -0.556079027   0.963153546   0.000000000
   0.000000000   0.000000000   1.496177267

ATOMIC_POSITIONS (angstrom)
Al      -0.245486856   2.495032110   0.000000000
Al       2.284812289   1.319175249   0.000000000
Al       4.335843013  -0.390826671   0.000000000
Al      -1.757224874   7.568771967   0.000000000
Al      -1.630148008   4.764338761   0.000000000
Al       0.526990950   6.211658841   0.000000000
Al       1.829443690   3.950390928   0.000000000
Al      -5.395338684  11.414849856   0.000000000
Al      -4.122376261   9.081011795   0.000000000
Al      -1.790423901  10.225549157   0.000000000
Al       0.531026990   8.889891188   0.000000000
Al       6.287682533   1.163454757   0.000000000
Al       7.772892975  -1.127975392   0.000000000
Al       4.151378205   4.863654790   0.000000000
Al       6.393797488   3.691493560   0.000000000
Al       2.771628252  10.183543209   0.000000000
Al       2.909568805   7.295567413   0.000000000



 %%%%%%%%%%%%%%%%%%%%%%%%%%%%%%%%%%%%%%%%%%%%%%%%%%%%%%%%%%%%%%%%%%%%%%%%%%%%%%
     Error in routine checkallsym (2):
     not orthogonal operation
 %%%%%%%%%%%%%%%%%%%%%%%%%%%%%%%%%%%%%%%%%%%%%%%%%%%%%%%%%%%%%%%%%%%%%%%%%%%%%%

     stopping ...
