
     Program PWSCF v.6.3MaX starts on 26Nov2020 at  8:36:18 

     This program is part of the open-source Quantum ESPRESSO suite
     for quantum simulation of materials; please cite
         "P. Giannozzi et al., J. Phys.:Condens. Matter 21 395502 (2009);
         "P. Giannozzi et al., J. Phys.:Condens. Matter 29 465901 (2017);
          URL http://www.quantum-espresso.org", 
     in publications or presentations arising from this work. More details at
     http://www.quantum-espresso.org/quote

     Parallel version (MPI), running on     8 processors

     MPI processes distributed on     1 nodes
     R & G space division:  proc/nbgrp/npool/nimage =       8
     Waiting for input...
     Reading input from standard input

     Current dimensions of program PWSCF are:
     Max number of different atomic species (ntypx) = 10
     Max number of k-points (npk) =  40000
     Max angular momentum in pseudopotentials (lmaxx) =  3

     Subspace diagonalization in iterative solution of the eigenvalue problem:
     a serial algorithm will be used

 
     Parallelization info
     --------------------
     sticks:   dense  smooth     PW     G-vecs:    dense   smooth      PW
     Min        3123    3123    778               448599   448599   56048
     Max        3124    3124    779               448604   448604   56052
     Sum       24985   24985   6229              3588803  3588803  448403
 


     bravais-lattice index     =            4
     lattice parameter (alat)  =      33.6810  a.u.
     unit-cell volume          =   37130.3117 (a.u.)^3
     number of atoms/cell      =           31
     number of atomic types    =            1
     number of electrons       =        93.00
     number of Kohn-Sham states=           56
     kinetic-energy cutoff     =      80.0000  Ry
     charge density cutoff     =     320.0000  Ry
     convergence threshold     =      1.0E-06
     mixing beta               =       0.4000
     number of iterations used =            8  plain     mixing
     Exchange-correlation      = PBE ( 1  4  3  4 0 0)
     nstep                     =          300


     celldm(1)=  33.680967  celldm(2)=   0.000000  celldm(3)=   1.122133
     celldm(4)=   0.000000  celldm(5)=   0.000000  celldm(6)=   0.000000

     crystal axes: (cart. coord. in units of alat)
               a(1) = (   1.000000   0.000000   0.000000 )  
               a(2) = (  -0.500000   0.866025   0.000000 )  
               a(3) = (   0.000000   0.000000   1.122133 )  

     reciprocal axes: (cart. coord. in units 2 pi/alat)
               b(1) = (  1.000000  0.577350  0.000000 )  
               b(2) = (  0.000000  1.154701  0.000000 )  
               b(3) = (  0.000000  0.000000  0.891160 )  


     PseudoPot. # 1 for Al read from file:
     ./Al.upf
     MD5 check sum: 4974d48a734c9d7d1eb6780a1419d19d
     Pseudo is Norm-conserving + core correction, Zval =  3.0
     Generated using ONCVPSP code by D. R. Hamann
     Using radial grid of 1876 points,  6 beta functions with: 
                l(1) =   0
                l(2) =   0
                l(3) =   1
                l(4) =   1
                l(5) =   2
                l(6) =   2

     atomic species   valence    mass     pseudopotential
        Al             3.00    29.98200     Al( 1.00)

      2 Sym. Ops. (no inversion) found



   Cartesian axes

     site n.     atom                  positions (alat units)
         1           Al  tau(   1) = (  -0.0000000   0.1443393   0.0000000  )
         2           Al  tau(   2) = (   0.1250015   0.0721696   0.0000000  )
         3           Al  tau(   3) = (  -0.1249997   0.3608472   0.0000000  )
         4           Al  tau(   4) = (   0.0000018   0.2886775   0.0000000  )
         5           Al  tau(   5) = (  -0.2499994   0.5773550   0.0000000  )
         6           Al  tau(   6) = (  -0.1249979   0.5051854   0.0000000  )
         7           Al  tau(   7) = (  -0.3749991   0.7938629   0.0000000  )
         8           Al  tau(   8) = (  -0.2499976   0.7216932   0.0000000  )
         9           Al  tau(   9) = (   0.2500011   0.1443403   0.0000000  )
        10           Al  tau(  10) = (   0.3750027   0.0721706   0.0000000  )
        11           Al  tau(  11) = (   0.1250014   0.3608482   0.0000000  )
        12           Al  tau(  12) = (   0.2500030   0.2886785   0.0000000  )
        13           Al  tau(  13) = (   0.0000017   0.5773560   0.0000000  )
        14           Al  tau(  14) = (   0.1250033   0.5051864   0.0000000  )
        15           Al  tau(  15) = (  -0.1249980   0.7938639   0.0000000  )
        16           Al  tau(  16) = (   0.0000036   0.7216942   0.0000000  )
        17           Al  tau(  17) = (   0.5000023   0.1443413   0.0000000  )
        18           Al  tau(  18) = (   0.6250038   0.0721717   0.0000000  )
        19           Al  tau(  19) = (   0.3750026   0.3608492   0.0000000  )
        20           Al  tau(  20) = (   0.5000041   0.2886795   0.0000000  )
        21           Al  tau(  21) = (   0.2500029   0.5773571   0.0000000  )
        22           Al  tau(  22) = (   0.1250032   0.7938649   0.0000000  )
        23           Al  tau(  23) = (   0.2500047   0.7216953   0.0000000  )
        24           Al  tau(  24) = (   0.7500035   0.1443423   0.0000000  )
        25           Al  tau(  25) = (   0.8750050   0.0721727   0.0000000  )
        26           Al  tau(  26) = (   0.6250038   0.3608502   0.0000000  )
        27           Al  tau(  27) = (   0.7500053   0.2886805   0.0000000  )
        28           Al  tau(  28) = (   0.5000041   0.5773581   0.0000000  )
        29           Al  tau(  29) = (   0.6250056   0.5051884   0.0000000  )
        30           Al  tau(  30) = (   0.3750044   0.7938660   0.0000000  )
        31           Al  tau(  31) = (   0.5000059   0.7216963   0.0000000  )

     number of k points=     1  Methfessel-Paxton smearing, width (Ry)=  0.0500
                       cart. coord. in units 2pi/alat
        k(    1) = (   0.0000000   0.0000000   0.0000000), wk =   2.0000000

     Dense  grid:  3588803 G-vectors     FFT dimensions: ( 192, 192, 216)

     Estimated max dynamical RAM per process >       1.15 GB

     Estimated total dynamical RAM >       9.23 GB

     Initial potential from superposition of free atoms

     starting charge   92.92414, renormalised to   93.00000

     negative rho (up, down):  9.278E-05 0.000E+00
     Starting wfcs are  124 randomized atomic wfcs

     total cpu time spent up to now is       26.3 secs

     Self-consistent Calculation

     iteration #  1     ecut=    80.00 Ry     beta= 0.40
     Davidson diagonalization with overlap
     ethr =  1.00E-02,  avg # of iterations =  2.0

     total cpu time spent up to now is       50.6 secs

     total energy              =    -140.64197794 Ry
     Harris-Foulkes estimate   =    -141.23604401 Ry
     estimated scf accuracy    <       1.54898350 Ry

     iteration #  2     ecut=    80.00 Ry     beta= 0.40
     Davidson diagonalization with overlap
     ethr =  1.67E-03,  avg # of iterations =  5.0

     total cpu time spent up to now is       76.3 secs

     total energy              =    -140.21880981 Ry
     Harris-Foulkes estimate   =    -141.45919955 Ry
     estimated scf accuracy    <       6.75660837 Ry

     iteration #  3     ecut=    80.00 Ry     beta= 0.40
     Davidson diagonalization with overlap
     ethr =  1.67E-03,  avg # of iterations =  5.0

     total cpu time spent up to now is      100.1 secs

     total energy              =    -140.82798431 Ry
     Harris-Foulkes estimate   =    -141.02336180 Ry
     estimated scf accuracy    <       1.17245788 Ry

     iteration #  4     ecut=    80.00 Ry     beta= 0.40
     Davidson diagonalization with overlap
     ethr =  1.26E-03,  avg # of iterations =  1.0

     total cpu time spent up to now is      118.1 secs

     total energy              =    -140.90033490 Ry
     Harris-Foulkes estimate   =    -140.94412903 Ry
     estimated scf accuracy    <       0.15064972 Ry

     iteration #  5     ecut=    80.00 Ry     beta= 0.40
     Davidson diagonalization with overlap
     ethr =  1.62E-04,  avg # of iterations =  5.0

     total cpu time spent up to now is      138.8 secs

     total energy              =    -140.91315261 Ry
     Harris-Foulkes estimate   =    -140.95577748 Ry
     estimated scf accuracy    <       0.30646434 Ry

     iteration #  6     ecut=    80.00 Ry     beta= 0.40
     Davidson diagonalization with overlap
     ethr =  1.62E-04,  avg # of iterations =  3.0

     total cpu time spent up to now is      157.9 secs

     total energy              =    -140.93236147 Ry
     Harris-Foulkes estimate   =    -140.93469037 Ry
     estimated scf accuracy    <       0.01006063 Ry

     iteration #  7     ecut=    80.00 Ry     beta= 0.40
     Davidson diagonalization with overlap
     ethr =  1.08E-05,  avg # of iterations = 11.0

     total cpu time spent up to now is      188.9 secs

     total energy              =    -140.93556728 Ry
     Harris-Foulkes estimate   =    -140.93684252 Ry
     estimated scf accuracy    <       0.00655305 Ry

     iteration #  8     ecut=    80.00 Ry     beta= 0.40
     Davidson diagonalization with overlap
     ethr =  7.05E-06,  avg # of iterations =  3.0

     total cpu time spent up to now is      208.9 secs

     total energy              =    -140.93560133 Ry
     Harris-Foulkes estimate   =    -140.93671987 Ry
     estimated scf accuracy    <       0.00687175 Ry

     iteration #  9     ecut=    80.00 Ry     beta= 0.40
     Davidson diagonalization with overlap
     ethr =  7.05E-06,  avg # of iterations =  1.0

     total cpu time spent up to now is      227.0 secs

     total energy              =    -140.93591509 Ry
     Harris-Foulkes estimate   =    -140.93620144 Ry
     estimated scf accuracy    <       0.00152927 Ry

     iteration # 10     ecut=    80.00 Ry     beta= 0.40
     Davidson diagonalization with overlap
     ethr =  1.64E-06,  avg # of iterations =  4.0

     total cpu time spent up to now is      246.6 secs

     total energy              =    -140.93601954 Ry
     Harris-Foulkes estimate   =    -140.93609759 Ry
     estimated scf accuracy    <       0.00036423 Ry

     iteration # 11     ecut=    80.00 Ry     beta= 0.40
     Davidson diagonalization with overlap
     ethr =  3.92E-07,  avg # of iterations =  5.0

     total cpu time spent up to now is      269.5 secs

     total energy              =    -140.93608329 Ry
     Harris-Foulkes estimate   =    -140.93612994 Ry
     estimated scf accuracy    <       0.00027834 Ry

     iteration # 12     ecut=    80.00 Ry     beta= 0.40
     Davidson diagonalization with overlap
     ethr =  2.99E-07,  avg # of iterations =  3.0

     total cpu time spent up to now is      288.5 secs

     total energy              =    -140.93610280 Ry
     Harris-Foulkes estimate   =    -140.93611777 Ry
     estimated scf accuracy    <       0.00009113 Ry

     iteration # 13     ecut=    80.00 Ry     beta= 0.40
     Davidson diagonalization with overlap
     ethr =  9.80E-08,  avg # of iterations =  3.0

     total cpu time spent up to now is      307.3 secs

     total energy              =    -140.93610995 Ry
     Harris-Foulkes estimate   =    -140.93611285 Ry
     estimated scf accuracy    <       0.00001412 Ry

     iteration # 14     ecut=    80.00 Ry     beta= 0.40
     Davidson diagonalization with overlap
     ethr =  1.52E-08,  avg # of iterations =  6.0

     total cpu time spent up to now is      330.2 secs

     total energy              =    -140.93611196 Ry
     Harris-Foulkes estimate   =    -140.93611395 Ry
     estimated scf accuracy    <       0.00000891 Ry

     iteration # 15     ecut=    80.00 Ry     beta= 0.40
     Davidson diagonalization with overlap
     ethr =  9.58E-09,  avg # of iterations =  4.0

     total cpu time spent up to now is      350.6 secs

     total energy              =    -140.93611188 Ry
     Harris-Foulkes estimate   =    -140.93611397 Ry
     estimated scf accuracy    <       0.00001442 Ry

     iteration # 16     ecut=    80.00 Ry     beta= 0.40
     Davidson diagonalization with overlap
     ethr =  9.58E-09,  avg # of iterations =  1.0

     total cpu time spent up to now is      368.3 secs

     End of self-consistent calculation

          k = 0.0000 0.0000 0.0000 (448403 PWs)   bands (ev):

    -9.9530  -9.4485  -9.4329  -9.4327  -9.4261  -9.4259  -9.1458  -8.4048
    -8.4047  -8.3881  -8.3881  -8.3798  -8.3036  -8.2570  -8.2570  -7.5862
    -6.9325  -6.9324  -6.8234  -6.4865  -6.4774  -6.4773  -6.3701  -6.3700
    -5.4640  -4.8435  -4.8434  -4.8370  -4.7356  -4.7355  -4.4780  -4.4681
    -4.4429  -4.4429  -4.1225  -4.1223  -3.9779  -3.4714  -3.4688  -3.4685
    -3.4578  -3.4576  -3.4017  -3.2744  -3.2744  -3.2223  -3.2072  -2.9742
    -2.9653  -2.9652  -2.9390  -2.5198  -2.5197  -2.4496  -2.4484  -2.4314

     the Fermi energy is    -3.0910 ev

!    total energy              =    -140.93611224 Ry
     Harris-Foulkes estimate   =    -140.93611288 Ry
     estimated scf accuracy    <       0.00000091 Ry

     The total energy is the sum of the following terms:

     one-electron contribution =    -502.03737227 Ry
     hartree contribution      =     259.76438095 Ry
     xc contribution           =     -61.33584816 Ry
     ewald contribution        =     162.75371665 Ry
     smearing contrib. (-TS)   =      -0.08098940 Ry

     convergence has been achieved in  16 iterations

     Forces acting on atoms (cartesian axes, Ry/au):

     atom    1 type  1   force =     0.00045879   -0.00028567    0.00000000
     atom    2 type  1   force =     0.00198437   -0.00113500    0.00000000
     atom    3 type  1   force =    -0.00001008    0.00056127    0.00000000
     atom    4 type  1   force =    -0.00109569   -0.00063557    0.00000000
     atom    5 type  1   force =    -0.00366633   -0.00400028    0.00000000
     atom    6 type  1   force =    -0.00000503    0.00231125    0.00000000
     atom    7 type  1   force =    -0.00529162   -0.00122588    0.00000000
     atom    8 type  1   force =     0.00186328    0.00109859    0.00000000
     atom    9 type  1   force =    -0.00158374    0.00520699    0.00000000
     atom   10 type  1   force =    -0.00000623   -0.00213018    0.00000000
     atom   11 type  1   force =     0.00109464    0.00064523    0.00000000
     atom   12 type  1   force =    -0.00320535   -0.00115311    0.00000000
     atom   13 type  1   force =     0.00369888   -0.00397782    0.00000000
     atom   14 type  1   force =    -0.00256711   -0.00221226    0.00000000
     atom   15 type  1   force =     0.00001502   -0.00001679    0.00000000
     atom   16 type  1   force =    -0.00186535    0.00107319    0.00000000
     atom   17 type  1   force =     0.00161989    0.00516708    0.00000000
     atom   18 type  1   force =    -0.00205731   -0.00115645    0.00000000
     atom   19 type  1   force =     0.00003250    0.01516316    0.00000000
     atom   20 type  1   force =     0.00317935   -0.00109809    0.00000000
     atom   21 type  1   force =     0.01311373   -0.00757692    0.00000000
     atom   22 type  1   force =     0.00527336   -0.00121064    0.00000000
     atom   23 type  1   force =     0.00064133    0.00330384    0.00000000
     atom   24 type  1   force =    -0.00046118   -0.00025314    0.00000000
     atom   25 type  1   force =     0.00003812    0.00132563    0.00000000
     atom   26 type  1   force =    -0.00114489    0.00064168    0.00000000
     atom   27 type  1   force =     0.00115085   -0.00064101    0.00000000
     atom   28 type  1   force =    -0.01309380   -0.00759180    0.00000000
     atom   29 type  1   force =     0.00253012   -0.00220317    0.00000000
     atom   30 type  1   force =    -0.00002206   -0.00130630    0.00000000
     atom   31 type  1   force =    -0.00061849    0.00331217    0.00000000

     Total force =     0.031215     Total SCF correction =     0.000709


     Computing stress (Cartesian axis) and pressure

          total   stress  (Ry/bohr**3)                   (kbar)     P=   -0.57
  -0.00000578  -0.00000001   0.00000000         -0.85     -0.00      0.00
  -0.00000001  -0.00000577   0.00000000         -0.00     -0.85      0.00
   0.00000000   0.00000000   0.00000001          0.00      0.00      0.00


     BFGS Geometry Optimization

     number of scf cycles    =   1
     number of bfgs steps    =   0

     enthalpy new            =    -140.9361122358 Ry

     new trust radius        =       0.0151631924 bohr
     new conv_thr            =       0.0000010000 Ry

     new unit-cell volume =  37119.58722 a.u.^3 (  5500.55525 Ang^3 )
     density =      0.28059 g/cm^3

CELL_PARAMETERS (alat= 33.68096681)
   0.999855394  -0.000000266   0.000000000
  -0.499927927   0.865900613   0.000000000
   0.000000000   0.000000000   1.122132950

ATOMIC_POSITIONS (angstrom)
Al       0.000241478   2.572065628   0.000000000
Al       2.228654161   1.285506762   0.000000000
Al      -2.227580101   6.430820802   0.000000000
Al      -0.000549000   5.144078066   0.000000000
Al      -4.457088126  10.286714344   0.000000000
Al      -2.227545435   9.003944290   0.000000000
Al      -6.685521570  14.146489341   0.000000000
Al      -4.454130412  12.861609731   0.000000000
Al       4.454337230   2.574988812   0.000000000
Al       6.682777391   1.284997222   0.000000000
Al       2.228180867   6.430882240   0.000000000
Al       4.453511237   5.143821248   0.000000000
Al       0.001985270  10.286743235   0.000000000
Al       2.226275430   9.001567907   0.000000000
Al      -2.227537365  14.147146080   0.000000000
Al      -0.000926773  12.861613299   0.000000000
Al       8.911208736   2.574984704   0.000000000
Al      11.136868625   1.285529434   0.000000000
Al       6.682795344   6.438580696   0.000000000
Al       8.912065842   5.143867365   0.000000000
Al       4.462143134  10.284855959   0.000000000
Al       2.230421289  14.146531419   0.000000000
Al       4.455575973  12.862810550   0.000000000
Al      13.365284099   2.572133870   0.000000000
Al      15.593153776   1.286859711   0.000000000
Al      11.137348846   6.430914379   0.000000000
Al      13.366169023   5.144126220   0.000000000
Al       8.903453173  10.284865099   0.000000000
Al      11.139325296   9.001606737   0.000000000
Al       6.682795935  14.146497821   0.000000000
Al       8.910085863  12.862831967   0.000000000



     Writing output data file 22al_planar_2x2_vcr.save/
     NEW-OLD atomic charge density approx. for the potential

     negative rho (up, down):  2.994E-07 0.000E+00
     extrapolated charge   92.97315, renormalised to   93.00000

     total cpu time spent up to now is      437.9 secs

     Self-consistent Calculation

     iteration #  1     ecut=    80.00 Ry     beta= 0.40
     Davidson diagonalization with overlap
     ethr =  1.00E-06,  avg # of iterations =  4.0

     Threshold (ethr) on eigenvalues was too large:
     Diagonalizing with lowered threshold

     Davidson diagonalization with overlap
     ethr =  9.79E-08,  avg # of iterations =  5.0

     negative rho (up, down):  1.480E-07 0.000E+00

     total cpu time spent up to now is      482.9 secs

     total energy              =    -140.93706246 Ry
     Harris-Foulkes estimate   =    -141.06998540 Ry
     estimated scf accuracy    <       0.00011030 Ry

     iteration #  2     ecut=    80.00 Ry     beta= 0.40
     Davidson diagonalization with overlap
     ethr =  1.19E-07,  avg # of iterations =  6.0

     negative rho (up, down):  1.328E-07 0.000E+00

     total cpu time spent up to now is      507.9 secs

     total energy              =    -140.93699607 Ry
     Harris-Foulkes estimate   =    -140.93722346 Ry
     estimated scf accuracy    <       0.00169337 Ry

     iteration #  3     ecut=    80.00 Ry     beta= 0.40
     Davidson diagonalization with overlap
     ethr =  1.19E-07,  avg # of iterations =  5.0

     negative rho (up, down):  8.726E-08 0.000E+00

     total cpu time spent up to now is      531.0 secs

     total energy              =    -140.93711172 Ry
     Harris-Foulkes estimate   =    -140.93711781 Ry
     estimated scf accuracy    <       0.00003546 Ry

     iteration #  4     ecut=    80.00 Ry     beta= 0.40
     Davidson diagonalization with overlap
     ethr =  3.81E-08,  avg # of iterations =  3.0

     negative rho (up, down):  6.194E-08 0.000E+00

     total cpu time spent up to now is      549.7 secs

     total energy              =    -140.93711259 Ry
     Harris-Foulkes estimate   =    -140.93711543 Ry
     estimated scf accuracy    <       0.00001237 Ry

     iteration #  5     ecut=    80.00 Ry     beta= 0.40
     Davidson diagonalization with overlap
     ethr =  1.33E-08,  avg # of iterations =  4.0

     negative rho (up, down):  3.512E-08 0.000E+00

     total cpu time spent up to now is      568.8 secs

     total energy              =    -140.93711351 Ry
     Harris-Foulkes estimate   =    -140.93711540 Ry
     estimated scf accuracy    <       0.00001120 Ry

     iteration #  6     ecut=    80.00 Ry     beta= 0.40
     Davidson diagonalization with overlap
     ethr =  1.20E-08,  avg # of iterations =  3.0

     negative rho (up, down):  1.421E-08 0.000E+00

     total cpu time spent up to now is      587.6 secs

     total energy              =    -140.93711444 Ry
     Harris-Foulkes estimate   =    -140.93711479 Ry
     estimated scf accuracy    <       0.00000173 Ry

     iteration #  7     ecut=    80.00 Ry     beta= 0.40
     Davidson diagonalization with overlap
     ethr =  1.86E-09,  avg # of iterations =  5.0

     total cpu time spent up to now is      610.2 secs

     total energy              =    -140.93711433 Ry
     Harris-Foulkes estimate   =    -140.93711514 Ry
     estimated scf accuracy    <       0.00000602 Ry

     iteration #  8     ecut=    80.00 Ry     beta= 0.40
     Davidson diagonalization with overlap
     ethr =  1.86E-09,  avg # of iterations =  4.0

     total cpu time spent up to now is      629.9 secs

     End of self-consistent calculation

          k = 0.0000 0.0000 0.0000 (448403 PWs)   bands (ev):

    -9.9533  -9.4486  -9.4335  -9.4334  -9.4254  -9.4253  -9.1440  -8.4040
    -8.4040  -8.3846  -8.3846  -8.3829  -8.3050  -8.2545  -8.2545  -7.5853
    -6.9324  -6.9323  -6.8229  -6.4823  -6.4776  -6.4776  -6.3723  -6.3722
    -5.4694  -4.8397  -4.8396  -4.8351  -4.7365  -4.7365  -4.4766  -4.4673
    -4.4431  -4.4431  -4.1253  -4.1250  -3.9780  -3.4712  -3.4677  -3.4676
    -3.4583  -3.4581  -3.4000  -3.2732  -3.2731  -3.2212  -3.2176  -2.9704
    -2.9635  -2.9635  -2.9412  -2.5171  -2.5170  -2.4464  -2.4453  -2.4337

     the Fermi energy is    -3.0908 ev

!    total energy              =    -140.93711440 Ry
     Harris-Foulkes estimate   =    -140.93711461 Ry
     estimated scf accuracy    <       0.00000033 Ry

     The total energy is the sum of the following terms:

     one-electron contribution =    -502.12509154 Ry
     hartree contribution      =     259.80742094 Ry
     xc contribution           =     -61.33398122 Ry
     ewald contribution        =     162.79521014 Ry
     smearing contrib. (-TS)   =      -0.08067271 Ry

     convergence has been achieved in   8 iterations

     Forces acting on atoms (cartesian axes, Ry/au):

     atom    1 type  1   force =     0.00065126   -0.00036471    0.00000000
     atom    2 type  1   force =     0.00195590   -0.00109919    0.00000000
     atom    3 type  1   force =     0.00000026    0.00074587    0.00000000
     atom    4 type  1   force =    -0.00087217   -0.00052197    0.00000000
     atom    5 type  1   force =    -0.00326250   -0.00324477    0.00000000
     atom    6 type  1   force =     0.00002399    0.00227411    0.00000000
     atom    7 type  1   force =    -0.00443605   -0.00123313    0.00000000
     atom    8 type  1   force =     0.00137609    0.00081193    0.00000000
     atom    9 type  1   force =    -0.00116320    0.00443750    0.00000000
     atom   10 type  1   force =    -0.00000390   -0.00158066    0.00000000
     atom   11 type  1   force =     0.00077148    0.00045500    0.00000000
     atom   12 type  1   force =    -0.00209155   -0.00039796    0.00000000
     atom   13 type  1   force =     0.00323833   -0.00321624    0.00000000
     atom   14 type  1   force =    -0.00138095   -0.00162877    0.00000000
     atom   15 type  1   force =     0.00001690   -0.00001290    0.00000000
     atom   16 type  1   force =    -0.00137375    0.00079440    0.00000000
     atom   17 type  1   force =     0.00118155    0.00442855    0.00000000
     atom   18 type  1   force =    -0.00199034   -0.00112646    0.00000000
     atom   19 type  1   force =     0.00004078    0.01495789    0.00000000
     atom   20 type  1   force =     0.00204308   -0.00037465    0.00000000
     atom   21 type  1   force =     0.01297793   -0.00747182    0.00000000
     atom   22 type  1   force =     0.00440410   -0.00122145    0.00000000
     atom   23 type  1   force =     0.00070770    0.00198251    0.00000000
     atom   24 type  1   force =    -0.00066483   -0.00036019    0.00000000
     atom   25 type  1   force =     0.00003125    0.00104802    0.00000000
     atom   26 type  1   force =    -0.00081807    0.00048174    0.00000000
     atom   27 type  1   force =     0.00092796   -0.00052941    0.00000000
     atom   28 type  1   force =    -0.01294342   -0.00748838    0.00000000
     atom   29 type  1   force =     0.00135130   -0.00159558    0.00000000
     atom   30 type  1   force =     0.00000008   -0.00093994    0.00000000
     atom   31 type  1   force =    -0.00069924    0.00199066    0.00000000

     Total force =     0.029240     Total SCF correction =     0.000414


     Computing stress (Cartesian axis) and pressure

          total   stress  (Ry/bohr**3)                   (kbar)     P=   -0.58
  -0.00000593  -0.00000002   0.00000000         -0.87     -0.00      0.00
  -0.00000002  -0.00000591   0.00000000         -0.00     -0.87      0.00
   0.00000000   0.00000000   0.00000001          0.00      0.00      0.00


     number of scf cycles    =   2
     number of bfgs steps    =   1

     enthalpy old            =    -140.9361122358 Ry
     enthalpy new            =    -140.9371143971 Ry

     CASE: enthalpy_new < enthalpy_old


     WARNING: bfgs curvature condition failed, Theta= 0.855
     new trust radius        =       0.0227415077 bohr
     new conv_thr            =       0.0000010000 Ry

     new unit-cell volume =  37103.12787 a.u.^3 (  5498.11623 Ang^3 )
     density =      0.28071 g/cm^3

CELL_PARAMETERS (alat= 33.68096681)
   0.999633401  -0.000000885   0.000000000
  -0.499817467   0.865709180   0.000000000
   0.000000000   0.000000000   1.122132950

ATOMIC_POSITIONS (angstrom)
Al       0.000702049   2.571228451   0.000000000
Al       2.229731903   1.284330467   0.000000000
Al      -2.227092454   6.429938460   0.000000000
Al      -0.001318023   5.142486723   0.000000000
Al      -4.458838120  10.281612825   0.000000000
Al      -2.227046116   9.003782412   0.000000000
Al      -6.687855929  14.142376663   0.000000000
Al      -4.451899862  12.859501489   0.000000000
Al       4.452287722   2.578200686   0.000000000
Al       6.681289022   1.283276261   0.000000000
Al       2.228398007   6.429878890   0.000000000
Al       4.450505987   5.142130515   0.000000000
Al       0.004709654  10.281659910   0.000000000
Al       2.224308657   8.998092103   0.000000000
Al      -2.227038616  14.144003233   0.000000000
Al      -0.002183603  12.859485871   0.000000000
Al       8.910307676   2.578177200   0.000000000
Al      11.132782506   1.284327576   0.000000000
Al       6.681337685   6.449179359   0.000000000
Al       8.912065311   5.142202181   0.000000000
Al       4.471569478  10.276566392   0.000000000
Al       2.233705890  14.142423625   0.000000000
Al       4.455124622  12.861948882   0.000000000
Al      13.361845418   2.571300566   0.000000000
Al      15.589718003   1.287488243   0.000000000
Al      11.134117864   6.429917645   0.000000000
Al      13.364008607   5.142521242   0.000000000
Al       8.891069755  10.276560066   0.000000000
Al      11.138287454   8.998144593   0.000000000
Al       6.681296721  14.142497315   0.000000000
Al       8.907564916  12.861974110   0.000000000



     Writing output data file 22al_planar_2x2_vcr.save/
     NEW-OLD atomic charge density approx. for the potential

     negative rho (up, down):  4.812E-07 0.000E+00
     extrapolated charge   92.95878, renormalised to   93.00000

     total cpu time spent up to now is      698.8 secs

     Self-consistent Calculation

     iteration #  1     ecut=    80.00 Ry     beta= 0.40
     Davidson diagonalization with overlap
     ethr =  1.00E-06,  avg # of iterations =  4.0

     negative rho (up, down):  2.411E-07 0.000E+00

     total cpu time spent up to now is      726.5 secs

     total energy              =    -140.93841053 Ry
     Harris-Foulkes estimate   =    -141.14253627 Ry
     estimated scf accuracy    <       0.00012534 Ry

     iteration #  2     ecut=    80.00 Ry     beta= 0.40
     Davidson diagonalization with overlap
     ethr =  1.35E-07,  avg # of iterations =  5.0

     negative rho (up, down):  2.179E-07 0.000E+00

     total cpu time spent up to now is      752.9 secs

     total energy              =    -140.93837552 Ry
     Harris-Foulkes estimate   =    -140.93859177 Ry
     estimated scf accuracy    <       0.00169820 Ry

     iteration #  3     ecut=    80.00 Ry     beta= 0.40
     Davidson diagonalization with overlap
     ethr =  1.35E-07,  avg # of iterations =  4.0

     negative rho (up, down):  1.396E-07 0.000E+00

     total cpu time spent up to now is      775.5 secs

     total energy              =    -140.93847758 Ry
     Harris-Foulkes estimate   =    -140.93848458 Ry
     estimated scf accuracy    <       0.00002910 Ry

     iteration #  4     ecut=    80.00 Ry     beta= 0.40
     Davidson diagonalization with overlap
     ethr =  3.13E-08,  avg # of iterations =  4.0

     negative rho (up, down):  1.000E-07 0.000E+00

     total cpu time spent up to now is      795.2 secs

     total energy              =    -140.93847791 Ry
     Harris-Foulkes estimate   =    -140.93848242 Ry
     estimated scf accuracy    <       0.00001731 Ry

     iteration #  5     ecut=    80.00 Ry     beta= 0.40
     Davidson diagonalization with overlap
     ethr =  1.86E-08,  avg # of iterations =  4.0

     negative rho (up, down):  5.045E-08 0.000E+00

     total cpu time spent up to now is      814.8 secs

     total energy              =    -140.93847837 Ry
     Harris-Foulkes estimate   =    -140.93848348 Ry
     estimated scf accuracy    <       0.00003291 Ry

     iteration #  6     ecut=    80.00 Ry     beta= 0.40
     Davidson diagonalization with overlap
     ethr =  1.86E-08,  avg # of iterations =  4.0

     negative rho (up, down):  1.731E-08 0.000E+00

     total cpu time spent up to now is      834.0 secs

     total energy              =    -140.93848113 Ry
     Harris-Foulkes estimate   =    -140.93848143 Ry
     estimated scf accuracy    <       0.00000218 Ry

     iteration #  7     ecut=    80.00 Ry     beta= 0.40
     Davidson diagonalization with overlap
     ethr =  2.34E-09,  avg # of iterations =  6.0

     negative rho (up, down):  1.219E-08 0.000E+00

     total cpu time spent up to now is      856.6 secs

     total energy              =    -140.93848116 Ry
     Harris-Foulkes estimate   =    -140.93848178 Ry
     estimated scf accuracy    <       0.00000410 Ry

     iteration #  8     ecut=    80.00 Ry     beta= 0.40
     Davidson diagonalization with overlap
     ethr =  2.34E-09,  avg # of iterations =  3.0

     total cpu time spent up to now is      875.1 secs

     End of self-consistent calculation

          k = 0.0000 0.0000 0.0000 (448403 PWs)   bands (ev):

    -9.9541  -9.4492  -9.4355  -9.4354  -9.4239  -9.4237  -9.1415  -8.4032
    -8.4032  -8.3871  -8.3801  -8.3799  -8.3072  -8.2508  -8.2508  -7.5838
    -6.9324  -6.9323  -6.8227  -6.4780  -6.4779  -6.4767  -6.3751  -6.3749
    -5.4773  -4.8345  -4.8344  -4.8326  -4.7375  -4.7374  -4.4748  -4.4662
    -4.4437  -4.4436  -4.1293  -4.1290  -3.9783  -3.4712  -3.4669  -3.4668
    -3.4588  -3.4585  -3.3975  -3.2714  -3.2713  -3.2328  -3.2197  -2.9653
    -2.9610  -2.9610  -2.9437  -2.5134  -2.5132  -2.4419  -2.4411  -2.4367

     the Fermi energy is    -3.0906 ev

!    total energy              =    -140.93848123 Ry
     Harris-Foulkes estimate   =    -140.93848148 Ry
     estimated scf accuracy    <       0.00000039 Ry

     The total energy is the sum of the following terms:

     one-electron contribution =    -502.26144198 Ry
     hartree contribution      =     259.87512367 Ry
     xc contribution           =     -61.33157902 Ry
     ewald contribution        =     162.85957273 Ry
     smearing contrib. (-TS)   =      -0.08015663 Ry

     convergence has been achieved in   8 iterations

     Forces acting on atoms (cartesian axes, Ry/au):

     atom    1 type  1   force =     0.00091166   -0.00051284    0.00000000
     atom    2 type  1   force =     0.00190905   -0.00107191    0.00000000
     atom    3 type  1   force =     0.00000032    0.00104353    0.00000000
     atom    4 type  1   force =    -0.00060951   -0.00036529    0.00000000
     atom    5 type  1   force =    -0.00266337   -0.00227956    0.00000000
     atom    6 type  1   force =     0.00002485    0.00221387    0.00000000
     atom    7 type  1   force =    -0.00329159   -0.00118379    0.00000000
     atom    8 type  1   force =     0.00073978    0.00043452    0.00000000
     atom    9 type  1   force =    -0.00064037    0.00343801    0.00000000
     atom   10 type  1   force =    -0.00000890   -0.00084511    0.00000000
     atom   11 type  1   force =     0.00039410    0.00023540    0.00000000
     atom   12 type  1   force =    -0.00060147    0.00058410    0.00000000
     atom   13 type  1   force =     0.00264157   -0.00227162    0.00000000
     atom   14 type  1   force =     0.00020537   -0.00082156    0.00000000
     atom   15 type  1   force =    -0.00000359   -0.00001346    0.00000000
     atom   16 type  1   force =    -0.00074426    0.00041582    0.00000000
     atom   17 type  1   force =     0.00065408    0.00344486    0.00000000
     atom   18 type  1   force =    -0.00192248   -0.00109982    0.00000000
     atom   19 type  1   force =     0.00002594    0.01479948    0.00000000
     atom   20 type  1   force =     0.00057059    0.00059351    0.00000000
     atom   21 type  1   force =     0.01283630   -0.00740042    0.00000000
     atom   22 type  1   force =     0.00330011   -0.00116073    0.00000000
     atom   23 type  1   force =     0.00079748    0.00020872    0.00000000
     atom   24 type  1   force =    -0.00092136   -0.00051692    0.00000000
     atom   25 type  1   force =     0.00002163    0.00072873    0.00000000
     atom   26 type  1   force =    -0.00042060    0.00023823    0.00000000
     atom   27 type  1   force =     0.00063388   -0.00036103    0.00000000
     atom   28 type  1   force =    -0.01283262   -0.00741858    0.00000000
     atom   29 type  1   force =    -0.00020451   -0.00080984    0.00000000
     atom   30 type  1   force =    -0.00000365   -0.00047682    0.00000000
     atom   31 type  1   force =    -0.00079842    0.00023053    0.00000000

     Total force =     0.027535     Total SCF correction =     0.000409


     Computing stress (Cartesian axis) and pressure

          total   stress  (Ry/bohr**3)                   (kbar)     P=   -0.60
  -0.00000610  -0.00000002   0.00000000         -0.90     -0.00      0.00
  -0.00000002  -0.00000609   0.00000000         -0.00     -0.90      0.00
   0.00000000   0.00000000   0.00000002          0.00      0.00      0.00


     number of scf cycles    =   3
     number of bfgs steps    =   2

     enthalpy old            =    -140.9371143971 Ry
     enthalpy new            =    -140.9384812330 Ry

     CASE: enthalpy_new < enthalpy_old

     new trust radius        =       0.0341047110 bohr
     new conv_thr            =       0.0000010000 Ry

     new unit-cell volume =  37077.93779 a.u.^3 (  5494.38344 Ang^3 )
     density =      0.28090 g/cm^3

CELL_PARAMETERS (alat= 33.68096681)
   0.999293606  -0.000001859   0.000000000
  -0.499648412   0.865416091   0.000000000
   0.000000000   0.000000000   1.122132950

ATOMIC_POSITIONS (angstrom)
Al       0.001557625   2.569858921   0.000000000
Al       2.231314761   1.282566617   0.000000000
Al      -2.226346856   6.428761906   0.000000000
Al      -0.002316311   5.140158534   0.000000000
Al      -4.461077624  10.274466059   0.000000000
Al      -2.226283874   9.003452587   0.000000000
Al      -6.690629701  14.136137544   0.000000000
Al      -4.448909194  12.856022298   0.000000000
Al       4.449497550   2.582409045   0.000000000
Al       6.679007346   1.281131704   0.000000000
Al       2.228482349   6.428198235   0.000000000
Al       4.446877307   5.140162262   0.000000000
Al       0.008445958  10.274526012   0.000000000
Al       2.222316137   8.993307901   0.000000000
Al      -2.226289844  14.139190938   0.000000000
Al      -0.003689441  12.855976216   0.000000000
Al       8.908579092   2.582364554   0.000000000
Al      11.126607059   1.282524862   0.000000000
Al       6.679094969   6.465025081   0.000000000
Al       8.911107206   5.140265209   0.000000000
Al       4.485665463  10.264059429   0.000000000
Al       2.237962289  14.136199446   0.000000000
Al       4.454476228  12.859481518   0.000000000
Al      13.356434863   2.569932612   0.000000000
Al      15.584452347   1.288232875   0.000000000
Al      11.129434239   6.428228211   0.000000000
Al      13.360500346   5.140180016   0.000000000
Al       8.872424565  10.264028724   0.000000000
Al      11.135701166   8.993364327   0.000000000
Al       6.678997586  14.136678469   0.000000000
Al       8.903657533  12.859521548   0.000000000



     Writing output data file 22al_planar_2x2_vcr.save/
     NEW-OLD atomic charge density approx. for the potential

     negative rho (up, down):  7.508E-07 0.000E+00
     extrapolated charge   92.93687, renormalised to   93.00000

     total cpu time spent up to now is      943.6 secs

     Self-consistent Calculation

     iteration #  1     ecut=    80.00 Ry     beta= 0.40
     Davidson diagonalization with overlap
     ethr =  1.00E-06,  avg # of iterations =  5.0

     negative rho (up, down):  3.820E-07 0.000E+00

     total cpu time spent up to now is      974.9 secs

     total energy              =    -140.94022936 Ry
     Harris-Foulkes estimate   =    -141.25298462 Ry
     estimated scf accuracy    <       0.00021460 Ry

     iteration #  2     ecut=    80.00 Ry     beta= 0.40
     Davidson diagonalization with overlap
     ethr =  2.31E-07,  avg # of iterations =  5.0

     negative rho (up, down):  3.445E-07 0.000E+00

     total cpu time spent up to now is     1002.0 secs

     total energy              =    -140.94019946 Ry
     Harris-Foulkes estimate   =    -140.94051732 Ry
     estimated scf accuracy    <       0.00242318 Ry

     iteration #  3     ecut=    80.00 Ry     beta= 0.40
     Davidson diagonalization with overlap
     ethr =  2.31E-07,  avg # of iterations =  4.0

     negative rho (up, down):  2.241E-07 0.000E+00

     total cpu time spent up to now is     1024.3 secs

     total energy              =    -140.94034876 Ry
     Harris-Foulkes estimate   =    -140.94036200 Ry
     estimated scf accuracy    <       0.00005842 Ry

     iteration #  4     ecut=    80.00 Ry     beta= 0.40
     Davidson diagonalization with overlap
     ethr =  6.28E-08,  avg # of iterations =  3.0

     negative rho (up, down):  1.636E-07 0.000E+00

     total cpu time spent up to now is     1043.5 secs

     total energy              =    -140.94034854 Ry
     Harris-Foulkes estimate   =    -140.94035671 Ry
     estimated scf accuracy    <       0.00003333 Ry

     iteration #  5     ecut=    80.00 Ry     beta= 0.40
     Davidson diagonalization with overlap
     ethr =  3.58E-08,  avg # of iterations =  4.0

     negative rho (up, down):  7.042E-08 0.000E+00

     total cpu time spent up to now is     1063.2 secs

     total energy              =    -140.94034828 Ry
     Harris-Foulkes estimate   =    -140.94035925 Ry
     estimated scf accuracy    <       0.00007121 Ry

     iteration #  6     ecut=    80.00 Ry     beta= 0.40
     Davidson diagonalization with overlap
     ethr =  3.58E-08,  avg # of iterations =  3.0

     negative rho (up, down):  2.442E-08 0.000E+00

     total cpu time spent up to now is     1081.9 secs

     total energy              =    -140.94035395 Ry
     Harris-Foulkes estimate   =    -140.94035481 Ry
     estimated scf accuracy    <       0.00000512 Ry

     iteration #  7     ecut=    80.00 Ry     beta= 0.40
     Davidson diagonalization with overlap
     ethr =  5.51E-09,  avg # of iterations =  5.0

     negative rho (up, down):  1.844E-08 0.000E+00

     total cpu time spent up to now is     1103.6 secs

     total energy              =    -140.94035459 Ry
     Harris-Foulkes estimate   =    -140.94035512 Ry
     estimated scf accuracy    <       0.00000344 Ry

     iteration #  8     ecut=    80.00 Ry     beta= 0.40
     Davidson diagonalization with overlap
     ethr =  3.70E-09,  avg # of iterations =  3.0

     total cpu time spent up to now is     1122.5 secs

     End of self-consistent calculation

          k = 0.0000 0.0000 0.0000 (448403 PWs)   bands (ev):

    -9.9553  -9.4503  -9.4389  -9.4387  -9.4212  -9.4210  -9.1386  -8.4026
    -8.4026  -8.3923  -8.3745  -8.3745  -8.3101  -8.2452  -8.2451  -7.5820
    -6.9328  -6.9326  -6.8230  -6.4782  -6.4781  -6.4693  -6.3784  -6.3783
    -5.4888  -4.8293  -4.8276  -4.8275  -4.7382  -4.7382  -4.4722  -4.4645
    -4.4445  -4.4444  -4.1352  -4.1349  -3.9787  -3.4715  -3.4670  -3.4668
    -3.4581  -3.4578  -3.3938  -3.2689  -3.2687  -3.2557  -3.2180  -2.9603
    -2.9574  -2.9574  -2.9441  -2.5083  -2.5082  -2.4404  -2.4358  -2.4354

     the Fermi energy is    -3.0902 ev

!    total energy              =    -140.94035425 Ry
     Harris-Foulkes estimate   =    -140.94035492 Ry
     estimated scf accuracy    <       0.00000099 Ry

     The total energy is the sum of the following terms:

     one-electron contribution =    -502.47120822 Ry
     hartree contribution      =     259.97957973 Ry
     xc contribution           =     -61.32837772 Ry
     ewald contribution        =     162.95896902 Ry
     smearing contrib. (-TS)   =      -0.07931706 Ry

     convergence has been achieved in   8 iterations

     Forces acting on atoms (cartesian axes, Ry/au):

     atom    1 type  1   force =     0.00123681   -0.00068666    0.00000000
     atom    2 type  1   force =     0.00187027   -0.00105105    0.00000000
     atom    3 type  1   force =     0.00000952    0.00141952    0.00000000
     atom    4 type  1   force =    -0.00027412   -0.00017023    0.00000000
     atom    5 type  1   force =    -0.00188624   -0.00111922    0.00000000
     atom    6 type  1   force =     0.00002416    0.00215023    0.00000000
     atom    7 type  1   force =    -0.00188948   -0.00108109    0.00000000
     atom    8 type  1   force =    -0.00003728   -0.00001193    0.00000000
     atom    9 type  1   force =    -0.00001310    0.00217171    0.00000000
     atom   10 type  1   force =    -0.00001281    0.00004964    0.00000000
     atom   11 type  1   force =    -0.00010054   -0.00005306    0.00000000
     atom   12 type  1   force =     0.00136178    0.00182785    0.00000000
     atom   13 type  1   force =     0.00186649   -0.00110192    0.00000000
     atom   14 type  1   force =     0.00224409    0.00024899    0.00000000
     atom   15 type  1   force =     0.00000869    0.00000261    0.00000000
     atom   16 type  1   force =     0.00003426   -0.00003794    0.00000000
     atom   17 type  1   force =     0.00002756    0.00218344    0.00000000
     atom   18 type  1   force =    -0.00187025   -0.00107710    0.00000000
     atom   19 type  1   force =     0.00000955    0.01473889    0.00000000
     atom   20 type  1   force =    -0.00138926    0.00182774    0.00000000
     atom   21 type  1   force =     0.01278095   -0.00738934    0.00000000
     atom   22 type  1   force =     0.00189727   -0.00107074    0.00000000
     atom   23 type  1   force =     0.00087996   -0.00208265    0.00000000
     atom   24 type  1   force =    -0.00123893   -0.00069075    0.00000000
     atom   25 type  1   force =     0.00001123    0.00033006    0.00000000
     atom   26 type  1   force =     0.00008784   -0.00004331    0.00000000
     atom   27 type  1   force =     0.00029131   -0.00017543    0.00000000
     atom   28 type  1   force =    -0.01278715   -0.00738906    0.00000000
     atom   29 type  1   force =    -0.00225199    0.00027349    0.00000000
     atom   30 type  1   force =     0.00000176    0.00010422    0.00000000
     atom   31 type  1   force =    -0.00089238   -0.00209690    0.00000000

     Total force =     0.027075     Total SCF correction =     0.000721


     Computing stress (Cartesian axis) and pressure

          total   stress  (Ry/bohr**3)                   (kbar)     P=   -0.62
  -0.00000634  -0.00000002   0.00000000         -0.93     -0.00      0.00
  -0.00000002  -0.00000633   0.00000000         -0.00     -0.93      0.00
   0.00000000   0.00000000   0.00000005          0.00      0.00      0.01


     number of scf cycles    =   4
     number of bfgs steps    =   3

     enthalpy old            =    -140.9384812330 Ry
     enthalpy new            =    -140.9403542508 Ry

     CASE: enthalpy_new < enthalpy_old

     new trust radius        =       0.0511397306 bohr
     new conv_thr            =       0.0000010000 Ry

     new unit-cell volume =  37039.72405 a.u.^3 (  5488.72075 Ang^3 )
     density =      0.28119 g/cm^3

CELL_PARAMETERS (alat= 33.68096681)
   0.998778034  -0.000003236   0.000000000
  -0.499391819   0.864971123   0.000000000
   0.000000000   0.000000000   1.122132950

ATOMIC_POSITIONS (angstrom)
Al       0.003006758   2.567699672   0.000000000
Al       2.233655779   1.279922169   0.000000000
Al      -2.225209530   6.427152624   0.000000000
Al      -0.003641417   5.136735618   0.000000000
Al      -4.463998948  10.264271498   0.000000000
Al      -2.225129678   9.002867755   0.000000000
Al      -6.694029871  14.126756422   0.000000000
Al      -4.444791957  12.850499122   0.000000000
Al       4.445602572   2.588050409   0.000000000
Al       6.675543530   1.278364106   0.000000000
Al       2.228341685   6.425489719   0.000000000
Al       4.442432517   5.137816865   0.000000000
Al       0.013646148  10.264359628   0.000000000
Al       2.220369440   8.986638568   0.000000000
Al      -2.225141592  14.131896371   0.000000000
Al      -0.005549573  12.850402370   0.000000000
Al       8.905620322   2.587973367   0.000000000
Al      11.117301840   1.279824722   0.000000000
Al       6.675682361   6.488729717   0.000000000
Al       8.908595895   5.137965188   0.000000000
Al       4.506757467  10.245236985   0.000000000
Al       2.243610147  14.126831656   0.000000000
Al       4.453515006  12.854514245   0.000000000
Al      13.348080607   2.567780298   0.000000000
Al      15.576457146   1.289140855   0.000000000
Al      11.122604749   6.425512624   0.000000000
Al      13.354987232   5.136730904   0.000000000
Al       8.844428266  10.245182920   0.000000000
Al      11.130692005   8.986711087   0.000000000
Al       6.675513074  14.128161818   0.000000000
Al       8.897703404  12.854550865   0.000000000



     Writing output data file 22al_planar_2x2_vcr.save/
     NEW-OLD atomic charge density approx. for the potential

     negative rho (up, down):  1.151E-06 0.000E+00
     extrapolated charge   92.90413, renormalised to   93.00000

     total cpu time spent up to now is     1191.1 secs

     Self-consistent Calculation

     iteration #  1     ecut=    80.00 Ry     beta= 0.40
     Davidson diagonalization with overlap
     ethr =  1.00E-06,  avg # of iterations =  6.0

     negative rho (up, down):  5.951E-07 0.000E+00

     total cpu time spent up to now is     1224.9 secs

     total energy              =    -140.94274911 Ry
     Harris-Foulkes estimate   =    -141.41801237 Ry
     estimated scf accuracy    <       0.00037393 Ry

     iteration #  2     ecut=    80.00 Ry     beta= 0.40
     Davidson diagonalization with overlap
     ethr =  4.02E-07,  avg # of iterations =  5.0

     negative rho (up, down):  5.343E-07 0.000E+00

     total cpu time spent up to now is     1251.9 secs

     total energy              =    -140.94274342 Ry
     Harris-Foulkes estimate   =    -140.94322276 Ry
     estimated scf accuracy    <       0.00350608 Ry

     iteration #  3     ecut=    80.00 Ry     beta= 0.40
     Davidson diagonalization with overlap
     ethr =  4.02E-07,  avg # of iterations =  4.0

     negative rho (up, down):  3.571E-07 0.000E+00

     total cpu time spent up to now is     1274.0 secs

     total energy              =    -140.94296434 Ry
     Harris-Foulkes estimate   =    -140.94299220 Ry
     estimated scf accuracy    <       0.00012859 Ry

     iteration #  4     ecut=    80.00 Ry     beta= 0.40
     Davidson diagonalization with overlap
     ethr =  1.38E-07,  avg # of iterations =  3.0

     negative rho (up, down):  2.632E-07 0.000E+00

     total cpu time spent up to now is     1293.6 secs

     total energy              =    -140.94296260 Ry
     Harris-Foulkes estimate   =    -140.94297871 Ry
     estimated scf accuracy    <       0.00007053 Ry

     iteration #  5     ecut=    80.00 Ry     beta= 0.40
     Davidson diagonalization with overlap
     ethr =  7.58E-08,  avg # of iterations =  4.0

     negative rho (up, down):  1.010E-07 0.000E+00

     total cpu time spent up to now is     1313.7 secs

     total energy              =    -140.94296096 Ry
     Harris-Foulkes estimate   =    -140.94298358 Ry
     estimated scf accuracy    <       0.00014486 Ry

     iteration #  6     ecut=    80.00 Ry     beta= 0.40
     Davidson diagonalization with overlap
     ethr =  7.58E-08,  avg # of iterations =  3.0

     negative rho (up, down):  3.711E-08 0.000E+00

     total cpu time spent up to now is     1332.8 secs

     total energy              =    -140.94297190 Ry
     Harris-Foulkes estimate   =    -140.94297341 Ry
     estimated scf accuracy    <       0.00000863 Ry

     iteration #  7     ecut=    80.00 Ry     beta= 0.40
     Davidson diagonalization with overlap
     ethr =  9.28E-09,  avg # of iterations =  5.0

     negative rho (up, down):  2.659E-08 0.000E+00

     total cpu time spent up to now is     1357.0 secs

     total energy              =    -140.94297258 Ry
     Harris-Foulkes estimate   =    -140.94297467 Ry
     estimated scf accuracy    <       0.00001566 Ry

     iteration #  8     ecut=    80.00 Ry     beta= 0.40
     Davidson diagonalization with overlap
     ethr =  9.28E-09,  avg # of iterations =  3.0

     total cpu time spent up to now is     1376.1 secs

     total energy              =    -140.94297325 Ry
     Harris-Foulkes estimate   =    -140.94297351 Ry
     estimated scf accuracy    <       0.00000123 Ry

     iteration #  9     ecut=    80.00 Ry     beta= 0.40
     Davidson diagonalization with overlap
     ethr =  1.32E-09,  avg # of iterations =  5.0

     total cpu time spent up to now is     1399.7 secs

     total energy              =    -140.94297324 Ry
     Harris-Foulkes estimate   =    -140.94297344 Ry
     estimated scf accuracy    <       0.00000154 Ry

     iteration # 10     ecut=    80.00 Ry     beta= 0.40
     Davidson diagonalization with overlap
     ethr =  1.32E-09,  avg # of iterations =  3.0

     total cpu time spent up to now is     1419.2 secs

     total energy              =    -140.94297318 Ry
     Harris-Foulkes estimate   =    -140.94297335 Ry
     estimated scf accuracy    <       0.00000149 Ry

     iteration # 11     ecut=    80.00 Ry     beta= 0.40
     Davidson diagonalization with overlap
     ethr =  1.32E-09,  avg # of iterations =  1.0

     total cpu time spent up to now is     1437.7 secs

     End of self-consistent calculation

          k = 0.0000 0.0000 0.0000 (448403 PWs)   bands (ev):

    -9.9566  -9.4512  -9.4433  -9.4430  -9.4164  -9.4162  -9.1343  -8.4015
    -8.4014  -8.3980  -8.3674  -8.3671  -8.3129  -8.2351  -8.2350  -7.5794
    -6.9328  -6.9327  -6.8231  -6.4774  -6.4772  -6.4583  -6.3816  -6.3814
    -5.5048  -4.8240  -4.8177  -4.8176  -4.7375  -4.7374  -4.4683  -4.4613
    -4.4447  -4.4447  -4.1430  -4.1429  -3.9791  -3.4715  -3.4684  -3.4682
    -3.4548  -3.4547  -3.3874  -3.2896  -3.2643  -3.2643  -3.2156  -2.9599
    -2.9511  -2.9511  -2.9351  -2.5007  -2.5006  -2.4443  -2.4286  -2.4276

     the Fermi energy is    -3.0891 ev

!    total energy              =    -140.94297292 Ry
     Harris-Foulkes estimate   =    -140.94297321 Ry
     estimated scf accuracy    <       0.00000035 Ry

     The total energy is the sum of the following terms:

     one-electron contribution =    -502.78780852 Ry
     hartree contribution      =     260.13409892 Ry
     xc contribution           =     -61.32322803 Ry
     ewald contribution        =     163.11184657 Ry
     smearing contrib. (-TS)   =      -0.07788187 Ry

     convergence has been achieved in  11 iterations

     Forces acting on atoms (cartesian axes, Ry/au):

     atom    1 type  1   force =     0.00163969   -0.00096185    0.00000000
     atom    2 type  1   force =     0.00181512   -0.00103765    0.00000000
     atom    3 type  1   force =     0.00000146    0.00188238    0.00000000
     atom    4 type  1   force =     0.00016252    0.00009734    0.00000000
     atom    5 type  1   force =    -0.00086281    0.00038284    0.00000000
     atom    6 type  1   force =     0.00001271    0.00210818    0.00000000
     atom    7 type  1   force =    -0.00010117   -0.00092004    0.00000000
     atom    8 type  1   force =    -0.00104366   -0.00060977    0.00000000
     atom    9 type  1   force =     0.00073524    0.00050791    0.00000000
     atom   10 type  1   force =     0.00000005    0.00120586    0.00000000
     atom   11 type  1   force =    -0.00074802   -0.00042899    0.00000000
     atom   12 type  1   force =     0.00396961    0.00347780    0.00000000
     atom   13 type  1   force =     0.00081906    0.00039722    0.00000000
     atom   14 type  1   force =     0.00497823    0.00169630    0.00000000
     atom   15 type  1   force =    -0.00000410   -0.00000200    0.00000000
     atom   16 type  1   force =     0.00104600   -0.00061842    0.00000000
     atom   17 type  1   force =    -0.00073837    0.00052559    0.00000000
     atom   18 type  1   force =    -0.00184114   -0.00107378    0.00000000
     atom   19 type  1   force =     0.00001480    0.01484816    0.00000000
     atom   20 type  1   force =    -0.00398144    0.00347423    0.00000000
     atom   21 type  1   force =     0.01288862   -0.00741775    0.00000000
     atom   22 type  1   force =     0.00008826   -0.00089039    0.00000000
     atom   23 type  1   force =     0.00102820   -0.00517122    0.00000000
     atom   24 type  1   force =    -0.00164649   -0.00094931    0.00000000
     atom   25 type  1   force =     0.00003689   -0.00018217    0.00000000
     atom   26 type  1   force =     0.00071421   -0.00040558    0.00000000
     atom   27 type  1   force =    -0.00012935    0.00010397    0.00000000
     atom   28 type  1   force =    -0.01284720   -0.00738596    0.00000000
     atom   29 type  1   force =    -0.00499382    0.00173371    0.00000000
     atom   30 type  1   force =     0.00001075    0.00082689    0.00000000
     atom   31 type  1   force =    -0.00102386   -0.00521349    0.00000000

     Total force =     0.029400     Total SCF correction =     0.000507


     Computing stress (Cartesian axis) and pressure

          total   stress  (Ry/bohr**3)                   (kbar)     P=   -0.66
  -0.00000670  -0.00000003   0.00000000         -0.99     -0.00      0.00
  -0.00000003  -0.00000669   0.00000000         -0.00     -0.98      0.00
   0.00000000   0.00000000  -0.00000000          0.00      0.00     -0.00


     number of scf cycles    =   5
     number of bfgs steps    =   4

     enthalpy old            =    -140.9403542508 Ry
     enthalpy new            =    -140.9429729170 Ry

     CASE: enthalpy_new < enthalpy_old

     new trust radius        =       0.0766701290 bohr
     new conv_thr            =       0.0000010000 Ry

     new unit-cell volume =  36982.03664 a.u.^3 (  5480.17236 Ang^3 )
     density =      0.28163 g/cm^3

CELL_PARAMETERS (alat= 33.68096681)
   0.997999124  -0.000005472   0.000000000
  -0.499004301   0.864299130   0.000000000
   0.000000000   0.000000000   1.122132950

ATOMIC_POSITIONS (angstrom)
Al       0.005332217   2.564326060   0.000000000
Al       2.237111737   1.275959117   0.000000000
Al      -2.223499780   6.424882697   0.000000000
Al      -0.005442893   5.131692451   0.000000000
Al      -4.467891212  10.249562367   0.000000000
Al      -2.223397923   9.001911130   0.000000000
Al      -6.698328948  14.112707948   0.000000000
Al      -4.439014548  12.841893870   0.000000000
Al       4.440029633   2.595763415   0.000000000
Al       6.670320065   1.274688277   0.000000000
Al       2.227842773   6.421233266   0.000000000
Al       4.436858813   5.134957259   0.000000000
Al       0.020966902  10.249691048   0.000000000
Al       2.218596992   8.977221315   0.000000000
Al      -2.223416531  14.120873886   0.000000000
Al      -0.007917034  12.841732437   0.000000000
Al       8.900827945   2.595634880   0.000000000
Al      11.103299743   1.275770726   0.000000000
Al       6.670531963   6.524203835   0.000000000
Al       8.903668989   5.135176657   0.000000000
Al       4.538333621  10.216991892   0.000000000
Al       2.251282531  14.112814423   0.000000000
Al       4.452103539  12.845670847   0.000000000
Al      13.335318770   2.564429454   0.000000000
Al      15.564397527   1.290277406   0.000000000
Al      11.112553325   6.421252743   0.000000000
Al      13.346471078   5.131653671   0.000000000
Al       8.802453774  10.216920881   0.000000000
Al      11.121944550   8.977323934   0.000000000
Al       6.670250528  14.115606161   0.000000000
Al       8.888678469  12.845686216   0.000000000



     Writing output data file 22al_planar_2x2_vcr.save/
     NEW-OLD atomic charge density approx. for the potential

     negative rho (up, down):  1.732E-06 0.000E+00
     extrapolated charge   92.85505, renormalised to   93.00000

     total cpu time spent up to now is     1506.4 secs

     Self-consistent Calculation

     iteration #  1     ecut=    80.00 Ry     beta= 0.40
     Davidson diagonalization with overlap
     ethr =  1.00E-06,  avg # of iterations =  8.0

     negative rho (up, down):  9.103E-07 0.000E+00

     total cpu time spent up to now is     1542.9 secs

     total energy              =    -140.94618025 Ry
     Harris-Foulkes estimate   =    -141.66559766 Ry
     estimated scf accuracy    <       0.00082211 Ry

     iteration #  2     ecut=    80.00 Ry     beta= 0.40
     Davidson diagonalization with overlap
     ethr =  8.84E-07,  avg # of iterations =  6.0

     negative rho (up, down):  8.210E-07 0.000E+00

     total cpu time spent up to now is     1571.6 secs

     total energy              =    -140.94614599 Ry
     Harris-Foulkes estimate   =    -140.94735316 Ry
     estimated scf accuracy    <       0.00926106 Ry

     iteration #  3     ecut=    80.00 Ry     beta= 0.40
     Davidson diagonalization with overlap
     c_bands:  1 eigenvalues not converged
     ethr =  8.84E-07,  avg # of iterations = 20.0

     negative rho (up, down):  5.794E-07 0.000E+00

     total cpu time spent up to now is     1600.7 secs

     total energy              =    -140.94662160 Ry
     Harris-Foulkes estimate   =    -140.94668209 Ry
     estimated scf accuracy    <       0.00026935 Ry

     iteration #  4     ecut=    80.00 Ry     beta= 0.40
     Davidson diagonalization with overlap
     ethr =  2.90E-07,  avg # of iterations =  3.0

     negative rho (up, down):  4.199E-07 0.000E+00

     total cpu time spent up to now is     1620.1 secs

     total energy              =    -140.94661618 Ry
     Harris-Foulkes estimate   =    -140.94664760 Ry
     estimated scf accuracy    <       0.00015858 Ry

     iteration #  5     ecut=    80.00 Ry     beta= 0.40
     Davidson diagonalization with overlap
     ethr =  1.71E-07,  avg # of iterations =  4.0

     negative rho (up, down):  2.240E-07 0.000E+00

     total cpu time spent up to now is     1639.5 secs

     total energy              =    -140.94660598 Ry
     Harris-Foulkes estimate   =    -140.94665748 Ry
     estimated scf accuracy    <       0.00033082 Ry

     iteration #  6     ecut=    80.00 Ry     beta= 0.40
     Davidson diagonalization with overlap
     ethr =  1.71E-07,  avg # of iterations =  2.0

     negative rho (up, down):  5.556E-08 0.000E+00

     total cpu time spent up to now is     1658.1 secs

     total energy              =    -140.94662905 Ry
     Harris-Foulkes estimate   =    -140.94663383 Ry
     estimated scf accuracy    <       0.00002772 Ry

     iteration #  7     ecut=    80.00 Ry     beta= 0.40
     Davidson diagonalization with overlap
     ethr =  2.98E-08,  avg # of iterations =  5.0

     negative rho (up, down):  3.839E-08 0.000E+00

     total cpu time spent up to now is     1680.6 secs

     total energy              =    -140.94663147 Ry
     Harris-Foulkes estimate   =    -140.94663531 Ry
     estimated scf accuracy    <       0.00002335 Ry

     iteration #  8     ecut=    80.00 Ry     beta= 0.40
     Davidson diagonalization with overlap
     c_bands:  1 eigenvalues not converged
     ethr =  2.51E-08,  avg # of iterations = 20.0

     negative rho (up, down):  3.744E-08 0.000E+00

     total cpu time spent up to now is     1704.2 secs

     total energy              =    -140.94657563 Ry
     Harris-Foulkes estimate   =    -140.94657655 Ry
     estimated scf accuracy    <       0.00003612 Ry

     iteration #  9     ecut=    80.00 Ry     beta= 0.40
     Davidson diagonalization with overlap
     ethr =  2.51E-08,  avg # of iterations =  1.0

     negative rho (up, down):  3.221E-08 0.000E+00

     total cpu time spent up to now is     1722.4 secs

     total energy              =    -140.94657430 Ry
     Harris-Foulkes estimate   =    -140.94657564 Ry
     estimated scf accuracy    <       0.00003176 Ry

     iteration # 10     ecut=    80.00 Ry     beta= 0.40
     Davidson diagonalization with overlap
     ethr =  2.51E-08,  avg # of iterations =  1.0

     negative rho (up, down):  3.592E-08 0.000E+00

     total cpu time spent up to now is     1740.1 secs

     total energy              =    -140.94657197 Ry
     Harris-Foulkes estimate   =    -140.94657449 Ry
     estimated scf accuracy    <       0.00002729 Ry

     iteration # 11     ecut=    80.00 Ry     beta= 0.40
     Davidson diagonalization with overlap
     ethr =  2.51E-08,  avg # of iterations =  1.0

     total cpu time spent up to now is     1758.4 secs

     total energy              =    -140.94656879 Ry
     Harris-Foulkes estimate   =    -140.94657245 Ry
     estimated scf accuracy    <       0.00001430 Ry

     iteration # 12     ecut=    80.00 Ry     beta= 0.40
     Davidson diagonalization with overlap
     ethr =  1.54E-08,  avg # of iterations =  4.0

     total cpu time spent up to now is     1780.8 secs

     total energy              =    -140.94657067 Ry
     Harris-Foulkes estimate   =    -140.94657179 Ry
     estimated scf accuracy    <       0.00000471 Ry

     iteration # 13     ecut=    80.00 Ry     beta= 0.40
     Davidson diagonalization with overlap
     ethr =  5.06E-09,  avg # of iterations =  4.0

     total cpu time spent up to now is     1801.4 secs

     total energy              =    -140.94657060 Ry
     Harris-Foulkes estimate   =    -140.94657113 Ry
     estimated scf accuracy    <       0.00000317 Ry

     iteration # 14     ecut=    80.00 Ry     beta= 0.40
     Davidson diagonalization with overlap
     ethr =  3.40E-09,  avg # of iterations =  1.0

     total cpu time spent up to now is     1819.5 secs

     End of self-consistent calculation

          k = 0.0000 0.0000 0.0000 (448403 PWs)   bands (ev):

    -9.9603  -9.4537  -9.4516  -9.4514  -9.4121  -9.4120  -9.1305  -8.4075
    -8.4038  -8.4037  -8.3587  -8.3584  -8.3193  -8.2198  -8.2197  -7.5778
    -6.9347  -6.9345  -6.8267  -6.4776  -6.4774  -6.4453  -6.3860  -6.3859
    -5.5298  -4.8193  -4.8065  -4.8062  -4.7364  -4.7363  -4.4640  -4.4577
    -4.4474  -4.4473  -4.1566  -4.1563  -3.9808  -3.4727  -3.4724  -3.4720
    -3.4509  -3.4509  -3.3784  -3.3413  -3.2602  -3.2602  -3.2135  -2.9666
    -2.9430  -2.9429  -2.9174  -2.4920  -2.4917  -2.4508  -2.4418  -2.4409

     the Fermi energy is    -3.0893 ev

!    total energy              =    -140.94657054 Ry
     Harris-Foulkes estimate   =    -140.94657080 Ry
     estimated scf accuracy    <       0.00000043 Ry

     The total energy is the sum of the following terms:

     one-electron contribution =    -503.27233608 Ry
     hartree contribution      =     260.37083019 Ry
     xc contribution           =     -61.31666335 Ry
     ewald contribution        =     163.34797398 Ry
     smearing contrib. (-TS)   =      -0.07637528 Ry

     convergence has been achieved in  14 iterations

     Forces acting on atoms (cartesian axes, Ry/au):

     atom    1 type  1   force =     0.00178208   -0.00099433    0.00000000
     atom    2 type  1   force =     0.00225691   -0.00132285    0.00000000
     atom    3 type  1   force =     0.00007109    0.00205679    0.00000000
     atom    4 type  1   force =     0.00069379    0.00042900    0.00000000
     atom    5 type  1   force =     0.00076758    0.00233446    0.00000000
     atom    6 type  1   force =    -0.00001068    0.00256441    0.00000000
     atom    7 type  1   force =     0.00238330   -0.00045363    0.00000000
     atom    8 type  1   force =    -0.00227446   -0.00134450    0.00000000
     atom    9 type  1   force =     0.00159873   -0.00184484    0.00000000
     atom   10 type  1   force =     0.00000970    0.00260787    0.00000000
     atom   11 type  1   force =    -0.00180304   -0.00108902    0.00000000
     atom   12 type  1   force =     0.00780622    0.00579625    0.00000000
     atom   13 type  1   force =    -0.00072073    0.00230279    0.00000000
     atom   14 type  1   force =     0.00885145    0.00392820    0.00000000
     atom   15 type  1   force =     0.00002510    0.00000054    0.00000000
     atom   16 type  1   force =     0.00222426   -0.00131287    0.00000000
     atom   17 type  1   force =    -0.00165422   -0.00176196    0.00000000
     atom   18 type  1   force =    -0.00213277   -0.00125734    0.00000000
     atom   19 type  1   force =    -0.00008785    0.01493950    0.00000000
     atom   20 type  1   force =    -0.00777526    0.00565381    0.00000000
     atom   21 type  1   force =     0.01291491   -0.00747670    0.00000000
     atom   22 type  1   force =    -0.00231028   -0.00052026    0.00000000
     atom   23 type  1   force =     0.00100364   -0.00959645    0.00000000
     atom   24 type  1   force =    -0.00179969   -0.00107302    0.00000000
     atom   25 type  1   force =    -0.00006053   -0.00090196    0.00000000
     atom   26 type  1   force =     0.00194617   -0.00109180    0.00000000
     atom   27 type  1   force =    -0.00085227    0.00044176    0.00000000
     atom   28 type  1   force =    -0.01296857   -0.00743980    0.00000000
     atom   29 type  1   force =    -0.00883738    0.00386107    0.00000000
     atom   30 type  1   force =     0.00005388    0.00218488    0.00000000
     atom   31 type  1   force =    -0.00110110   -0.00961999    0.00000000

     Total force =     0.036532     Total SCF correction =     0.000424


     Computing stress (Cartesian axis) and pressure

          total   stress  (Ry/bohr**3)                   (kbar)     P=   -0.70
  -0.00000718   0.00000002   0.00000000         -1.06      0.00      0.00
   0.00000002  -0.00000719   0.00000000          0.00     -1.06      0.00
   0.00000000   0.00000000   0.00000001          0.00      0.00      0.00


     number of scf cycles    =   6
     number of bfgs steps    =   5

     enthalpy old            =    -140.9429729170 Ry
     enthalpy new            =    -140.9465705368 Ry

     CASE: enthalpy_new < enthalpy_old

     new trust radius        =       0.1149157765 bohr
     new conv_thr            =       0.0000010000 Ry

     new unit-cell volume =  36895.10927 a.u.^3 (  5467.29105 Ang^3 )
     density =      0.28229 g/cm^3

CELL_PARAMETERS (alat= 33.68096681)
   0.996824570  -0.000007200   0.000000000
  -0.498418521   0.863284443   0.000000000
   0.000000000   0.000000000   1.122132950

ATOMIC_POSITIONS (angstrom)
Al       0.008723813   2.559339585   0.000000000
Al       2.242570404   1.269825160   0.000000000
Al      -2.220866728   6.421325334   0.000000000
Al      -0.007972117   5.124202244   0.000000000
Al      -4.473013870  10.228061487   0.000000000
Al      -2.220788585   9.000707886   0.000000000
Al      -6.703836000  14.091799689   0.000000000
Al      -4.430670816  12.828665895   0.000000000
Al       4.431868015   2.606454507   0.000000000
Al       6.662451177   1.269594789   0.000000000
Al       2.226676702   6.414537385   0.000000000
Al       4.429892770   5.131437653   0.000000000
Al       0.031361597  10.228229779   0.000000000
Al       2.217309231   8.963906403   0.000000000
Al      -2.220769797  14.104240053   0.000000000
Al      -0.011111059  12.828439071   0.000000000
Al       8.893338100   2.606290993   0.000000000
Al      11.082036218   1.269583634   0.000000000
Al       6.662711471   6.577265621   0.000000000
Al       8.894842729   5.131687769   0.000000000
Al       4.585546125  10.174611122   0.000000000
Al       2.261977273  14.091901823   0.000000000
Al       4.449893238  12.830732132   0.000000000
Al      13.316191322   2.559440942   0.000000000
Al      15.546149630   1.291746773   0.000000000
Al      11.097945424   6.414546652   0.000000000
Al      13.333336148   5.124135981   0.000000000
Al       8.739530077  10.174518017   0.000000000
Al      11.107415253   8.963997291   0.000000000
Al       6.662362623  14.097255999   0.000000000
Al       8.875129108  12.830742996   0.000000000



     Writing output data file 22al_planar_2x2_vcr.save/
     NEW-OLD atomic charge density approx. for the potential

     negative rho (up, down):  2.658E-06 0.000E+00
     extrapolated charge   92.78106, renormalised to   93.00000

     total cpu time spent up to now is     1888.3 secs

     Self-consistent Calculation

     iteration #  1     ecut=    80.00 Ry     beta= 0.40
     Davidson diagonalization with overlap
     ethr =  1.00E-06,  avg # of iterations =  9.0

     negative rho (up, down):  1.426E-06 0.000E+00

     total cpu time spent up to now is     1927.5 secs

     total energy              =    -140.95059661 Ry
     Harris-Foulkes estimate   =    -142.03929109 Ry
     estimated scf accuracy    <       0.00201183 Ry

     iteration #  2     ecut=    80.00 Ry     beta= 0.40
     Davidson diagonalization with overlap
     ethr =  2.16E-06,  avg # of iterations =  6.0

     negative rho (up, down):  1.288E-06 0.000E+00

     total cpu time spent up to now is     1956.7 secs

     total energy              =    -140.95040043 Ry
     Harris-Foulkes estimate   =    -140.95382923 Ry
     estimated scf accuracy    <       0.02639454 Ry

     iteration #  3     ecut=    80.00 Ry     beta= 0.40
     Davidson diagonalization with overlap
     ethr =  2.16E-06,  avg # of iterations =  4.0

     negative rho (up, down):  9.264E-07 0.000E+00

     total cpu time spent up to now is     1980.4 secs

     total energy              =    -140.95191612 Ry
     Harris-Foulkes estimate   =    -140.95204224 Ry
     estimated scf accuracy    <       0.00057258 Ry

     iteration #  4     ecut=    80.00 Ry     beta= 0.40
     Davidson diagonalization with overlap
     ethr =  6.16E-07,  avg # of iterations =  3.0

     negative rho (up, down):  6.499E-07 0.000E+00

     total cpu time spent up to now is     1999.7 secs

     total energy              =    -140.95191729 Ry
     Harris-Foulkes estimate   =    -140.95197621 Ry
     estimated scf accuracy    <       0.00033231 Ry

     iteration #  5     ecut=    80.00 Ry     beta= 0.40
     Davidson diagonalization with overlap
     ethr =  3.57E-07,  avg # of iterations =  4.0

     negative rho (up, down):  3.894E-07 0.000E+00

     total cpu time spent up to now is     2018.8 secs

     total energy              =    -140.95189360 Ry
     Harris-Foulkes estimate   =    -140.95198071 Ry
     estimated scf accuracy    <       0.00049430 Ry

     iteration #  6     ecut=    80.00 Ry     beta= 0.40
     Davidson diagonalization with overlap
     ethr =  3.57E-07,  avg # of iterations =  3.0

     negative rho (up, down):  8.213E-08 0.000E+00

     total cpu time spent up to now is     2037.7 secs

     total energy              =    -140.95193100 Ry
     Harris-Foulkes estimate   =    -140.95195083 Ry
     estimated scf accuracy    <       0.00010853 Ry

     iteration #  7     ecut=    80.00 Ry     beta= 0.40
     Davidson diagonalization with overlap
     ethr =  1.17E-07,  avg # of iterations =  3.0

     negative rho (up, down):  6.067E-08 0.000E+00

     total cpu time spent up to now is     2056.6 secs

     total energy              =    -140.95194069 Ry
     Harris-Foulkes estimate   =    -140.95194771 Ry
     estimated scf accuracy    <       0.00003997 Ry

     iteration #  8     ecut=    80.00 Ry     beta= 0.40
     Davidson diagonalization with overlap
     ethr =  4.30E-08,  avg # of iterations =  3.0

     negative rho (up, down):  3.744E-08 0.000E+00

     total cpu time spent up to now is     2076.3 secs

     total energy              =    -140.95194556 Ry
     Harris-Foulkes estimate   =    -140.95194766 Ry
     estimated scf accuracy    <       0.00001041 Ry

     iteration #  9     ecut=    80.00 Ry     beta= 0.40
     Davidson diagonalization with overlap
     ethr =  1.12E-08,  avg # of iterations =  4.0

     negative rho (up, down):  1.777E-08 0.000E+00

     total cpu time spent up to now is     2098.2 secs

     total energy              =    -140.95194625 Ry
     Harris-Foulkes estimate   =    -140.95194759 Ry
     estimated scf accuracy    <       0.00000756 Ry

     iteration # 10     ecut=    80.00 Ry     beta= 0.40
     Davidson diagonalization with overlap
     ethr =  8.13E-09,  avg # of iterations =  3.0

     total cpu time spent up to now is     2117.4 secs

     total energy              =    -140.95194628 Ry
     Harris-Foulkes estimate   =    -140.95194750 Ry
     estimated scf accuracy    <       0.00000794 Ry

     iteration # 11     ecut=    80.00 Ry     beta= 0.40
     Davidson diagonalization with overlap
     ethr =  8.13E-09,  avg # of iterations =  1.0

     total cpu time spent up to now is     2135.7 secs

     total energy              =    -140.95194662 Ry
     Harris-Foulkes estimate   =    -140.95194690 Ry
     estimated scf accuracy    <       0.00000108 Ry

     iteration # 12     ecut=    80.00 Ry     beta= 0.40
     Davidson diagonalization with overlap
     ethr =  1.16E-09,  avg # of iterations =  5.0

     total cpu time spent up to now is     2160.0 secs

     total energy              =    -140.95194679 Ry
     Harris-Foulkes estimate   =    -140.95194693 Ry
     estimated scf accuracy    <       0.00000112 Ry

     iteration # 13     ecut=    80.00 Ry     beta= 0.40
     Davidson diagonalization with overlap
     ethr =  1.16E-09,  avg # of iterations =  3.0

     total cpu time spent up to now is     2179.1 secs

     End of self-consistent calculation

          k = 0.0000 0.0000 0.0000 (448403 PWs)   bands (ev):

    -9.9646  -9.4614  -9.4612  -9.4564  -9.4053  -9.4050  -9.1258  -8.4190
    -8.4032  -8.4030  -8.3511  -8.3508  -8.3263  -8.1933  -8.1931  -7.5794
    -6.9366  -6.9364  -6.8297  -6.4760  -6.4757  -6.4252  -6.3901  -6.3898
    -5.5678  -4.8089  -4.7918  -4.7916  -4.7297  -4.7296  -4.4568  -4.4511
    -4.4490  -4.4488  -4.1760  -4.1757  -3.9823  -3.4776  -3.4774  -3.4720
    -3.4440  -3.4437  -3.4231  -3.3635  -3.2519  -3.2518  -3.2120  -2.9753
    -2.9300  -2.9299  -2.8857  -2.4776  -2.4773  -2.4580  -2.4389  -2.4388

     the Fermi energy is    -3.0874 ev

!    total energy              =    -140.95194614 Ry
     Harris-Foulkes estimate   =    -140.95194691 Ry
     estimated scf accuracy    <       0.00000085 Ry

     The total energy is the sum of the following terms:

     one-electron contribution =    -504.03156187 Ry
     hartree contribution      =     260.74357303 Ry
     xc contribution           =     -61.30894200 Ry
     ewald contribution        =     163.71743480 Ry
     smearing contrib. (-TS)   =      -0.07245009 Ry

     convergence has been achieved in  13 iterations

     Forces acting on atoms (cartesian axes, Ry/au):

     atom    1 type  1   force =     0.00258191   -0.00141014    0.00000000
     atom    2 type  1   force =     0.00204490   -0.00120268    0.00000000
     atom    3 type  1   force =     0.00007500    0.00293379    0.00000000
     atom    4 type  1   force =     0.00135393    0.00081015    0.00000000
     atom    5 type  1   force =     0.00271946    0.00516096    0.00000000
     atom    6 type  1   force =     0.00001978    0.00230957    0.00000000
     atom    7 type  1   force =     0.00583019   -0.00011734    0.00000000
     atom    8 type  1   force =    -0.00413535   -0.00242691    0.00000000
     atom    9 type  1   force =     0.00305762   -0.00496641    0.00000000
     atom   10 type  1   force =     0.00000862    0.00474407    0.00000000
     atom   11 type  1   force =    -0.00276254   -0.00162062    0.00000000
     atom   12 type  1   force =     0.01248310    0.00914633    0.00000000
     atom   13 type  1   force =    -0.00269719    0.00512893    0.00000000
     atom   14 type  1   force =     0.01409498    0.00628770    0.00000000
     atom   15 type  1   force =     0.00001378    0.00005115    0.00000000
     atom   16 type  1   force =     0.00414717   -0.00240414    0.00000000
     atom   17 type  1   force =    -0.00313179   -0.00486126    0.00000000
     atom   18 type  1   force =    -0.00189363   -0.00115771    0.00000000
     atom   19 type  1   force =    -0.00007636    0.01543119    0.00000000
     atom   20 type  1   force =    -0.01247650    0.00898989    0.00000000
     atom   21 type  1   force =     0.01333912   -0.00773937    0.00000000
     atom   22 type  1   force =    -0.00576456   -0.00022040    0.00000000
     atom   23 type  1   force =     0.00155869   -0.01532124    0.00000000
     atom   24 type  1   force =    -0.00257239   -0.00153665    0.00000000
     atom   25 type  1   force =    -0.00009579   -0.00170200    0.00000000
     atom   26 type  1   force =     0.00290434   -0.00166948    0.00000000
     atom   27 type  1   force =    -0.00150909    0.00083260    0.00000000
     atom   28 type  1   force =    -0.01341686   -0.00770094    0.00000000
     atom   29 type  1   force =    -0.01405060    0.00626281    0.00000000
     atom   30 type  1   force =     0.00002141    0.00331704    0.00000000
     atom   31 type  1   force =    -0.00167137   -0.01534889    0.00000000

     Total force =     0.049954     Total SCF correction =     0.000779


     Computing stress (Cartesian axis) and pressure

          total   stress  (Ry/bohr**3)                   (kbar)     P=   -0.77
  -0.00000786   0.00000001   0.00000000         -1.16      0.00      0.00
   0.00000001  -0.00000788   0.00000000          0.00     -1.16      0.00
   0.00000000   0.00000000  -0.00000000          0.00      0.00     -0.00


[...]
Al      -1.684786102  11.990937396   0.000000000
Al       0.614132607  10.672299854   0.000000000
Al       8.444070829   3.215171586   0.000000000
Al       8.588011007   0.304792167   0.000000000
Al       4.186488096   5.610547437   0.000000000
Al       6.308223435   4.397260782   0.000000000
Al       3.016944945   9.311969907   0.000000000
Al       2.966853428  12.019624900   0.000000000
Al       5.405740928  10.578140510   0.000000000
Al      10.587312612   2.050653831   0.000000000
Al      12.726781812   0.877261263   0.000000000
Al      10.388698104   5.021414984   0.000000000
Al      12.669183407   3.696366940   0.000000000
Al       5.544890798   7.880214966   0.000000000
Al       8.027687020   6.412031152   0.000000000
Al       6.905220577  12.757107756   0.000000000
Al       7.947489894   9.115855184   0.000000000
End final coordinates



     Writing output data file 22al_planar_2x2_vcr.save/

     A final scf calculation at the relaxed structure.
     The G-vectors are recalculated for the final unit cell
     Results may differ from those at the preceding step.
 
     Parallelization info
     --------------------
     sticks:   dense  smooth     PW     G-vecs:    dense   smooth      PW
     Min        2243    2243    561               321831   321831   40223
     Max        2244    2244    562               321836   321836   40228
     Sum       17951   17951   4495              2574677  2574677  321809
 


     bravais-lattice index     =            4
     lattice parameter (alat)  =      33.6810  a.u.
     unit-cell volume          =   26631.5961 (a.u.)^3
     number of atoms/cell      =           31
     number of atomic types    =            1
     number of electrons       =        93.00
     number of Kohn-Sham states=           56
     kinetic-energy cutoff     =      80.0000  Ry
     charge density cutoff     =     320.0000  Ry
     convergence threshold     =      1.0E-08
     mixing beta               =       0.4000
     number of iterations used =            8  plain     mixing
     Exchange-correlation      = PBE ( 1  4  3  4 0 0)

     celldm(1)=  33.680967  celldm(2)=   0.000000  celldm(3)=   1.122133
     celldm(4)=   0.000000  celldm(5)=   0.000000  celldm(6)=   0.000000

     crystal axes: (cart. coord. in units of alat)
               a(1) = (   0.858551  -0.019947   0.000000 )  
               a(2) = (  -0.446010   0.733854   0.000000 )  
               a(3) = (   0.000000   0.000000   1.122133 )  

     reciprocal axes: (cart. coord. in units 2 pi/alat)
               b(1) = (  1.181436  0.718035  0.000000 )  
               b(2) = (  0.032113  1.382187  0.000000 )  
               b(3) = (  0.000000  0.000000  0.891160 )  


     PseudoPot. # 1 for Al read from file:
     ./Al.upf
     MD5 check sum: 4974d48a734c9d7d1eb6780a1419d19d
     Pseudo is Norm-conserving + core correction, Zval =  3.0
     Generated using ONCVPSP code by D. R. Hamann
     Using radial grid of 1876 points,  6 beta functions with: 
                l(1) =   0
                l(2) =   0
                l(3) =   1
                l(4) =   1
                l(5) =   2
                l(6) =   2

     atomic species   valence    mass     pseudopotential
        Al             3.00    29.98200     Al( 1.00)

      2 Sym. Ops. (no inversion) found



   Cartesian axes

     site n.     atom                  positions (alat units)
         1           Al  tau(   1) = (   0.1017338   0.0834022   0.0000000  )
         2           Al  tau(   2) = (   0.2258443   0.0115934   0.0000000  )
         3           Al  tau(   3) = (  -0.1447829   0.3792381   0.0000000  )
         4           Al  tau(   4) = (  -0.0223405   0.1549932   0.0000000  )
         5           Al  tau(   5) = (  -0.2754451   0.4538360   0.0000000  )
         6           Al  tau(   6) = (  -0.1178150   0.5257014   0.0000000  )
         7           Al  tau(   7) = (  -0.3524121   0.6670633   0.0000000  )
         8           Al  tau(   8) = (  -0.2346782   0.5969723   0.0000000  )
         9           Al  tau(   9) = (   0.2301971   0.1626813   0.0000000  )
        10           Al  tau(  10) = (   0.3549528   0.0906171   0.0000000  )
        11           Al  tau(  11) = (  -0.0182257   0.3062085   0.0000000  )
        12           Al  tau(  12) = (   0.1062945   0.2342479   0.0000000  )
        13           Al  tau(  13) = (  -0.0011271   0.4541982   0.0000000  )
        14           Al  tau(  14) = (   0.1163081   0.3836860   0.0000000  )
        15           Al  tau(  15) = (  -0.0945277   0.6727713   0.0000000  )
        16           Al  tau(  16) = (   0.0344569   0.5987870   0.0000000  )
        17           Al  tau(  17) = (   0.4737685   0.1803925   0.0000000  )
        18           Al  tau(  18) = (   0.4818445   0.0171009   0.0000000  )
        19           Al  tau(  19) = (   0.2348898   0.3147890   0.0000000  )
        20           Al  tau(  20) = (   0.3539333   0.2467156   0.0000000  )
        21           Al  tau(  21) = (   0.1692707   0.5224634   0.0000000  )
        22           Al  tau(  22) = (   0.1664602   0.6743809   0.0000000  )
        23           Al  tau(  23) = (   0.3032980   0.5935040   0.0000000  )
        24           Al  tau(  24) = (   0.5940186   0.1150553   0.0000000  )
        25           Al  tau(  25) = (   0.7140571   0.0492202   0.0000000  )
        26           Al  tau(  26) = (   0.5828750   0.2817348   0.0000000  )
        27           Al  tau(  27) = (   0.7108254   0.2073908   0.0000000  )
        28           Al  tau(  28) = (   0.3111052   0.4421324   0.0000000  )
        29           Al  tau(  29) = (   0.4504066   0.3597576   0.0000000  )
        30           Al  tau(  30) = (   0.3874288   0.7157585   0.0000000  )
        31           Al  tau(  31) = (   0.4459070   0.5114601   0.0000000  )

     number of k points=     1  Methfessel-Paxton smearing, width (Ry)=  0.0500
                       cart. coord. in units 2pi/alat
        k(    1) = (   0.0000000   0.0000000   0.0000000), wk =   2.0000000

     Dense  grid:  2574677 G-vectors     FFT dimensions: ( 180, 180, 216)

     Estimated max dynamical RAM per process >     867.28 MB

     Estimated total dynamical RAM >       6.78 GB

     Initial potential from superposition of free atoms

     starting charge   92.92414, renormalised to   93.00000

     negative rho (up, down):  7.235E-05 0.000E+00
     Starting wfcs are  124 randomized atomic wfcs

     total cpu time spent up to now is    75136.0 secs

     Self-consistent Calculation

     iteration #  1     ecut=    80.00 Ry     beta= 0.40
     Davidson diagonalization with overlap
     c_bands:  2 eigenvalues not converged
     ethr =  1.00E-06,  avg # of iterations = 20.0

     negative rho (up, down):  1.124E-05 0.000E+00

     total cpu time spent up to now is    75187.5 secs

     total energy              =    -141.98277863 Ry
     Harris-Foulkes estimate   =    -142.39525288 Ry
     estimated scf accuracy    <       1.06533422 Ry

     iteration #  2     ecut=    80.00 Ry     beta= 0.40
     Davidson diagonalization with overlap
     ethr =  1.15E-03,  avg # of iterations =  5.0

     negative rho (up, down):  7.563E-06 0.000E+00

     total cpu time spent up to now is    75204.8 secs

     total energy              =    -141.85481185 Ry
     Harris-Foulkes estimate   =    -142.25962187 Ry
     estimated scf accuracy    <       1.40775409 Ry

     iteration #  3     ecut=    80.00 Ry     beta= 0.40
     Davidson diagonalization with overlap
     ethr =  1.15E-03,  avg # of iterations =  4.0

     negative rho (up, down):  2.203E-06 0.000E+00

     total cpu time spent up to now is    75221.8 secs

     total energy              =    -142.04260573 Ry
     Harris-Foulkes estimate   =    -142.15391882 Ry
     estimated scf accuracy    <       0.51893088 Ry

     iteration #  4     ecut=    80.00 Ry     beta= 0.40
     Davidson diagonalization with overlap
     ethr =  5.58E-04,  avg # of iterations =  3.0

     negative rho (up, down):  1.139E-06 0.000E+00

     total cpu time spent up to now is    75236.7 secs

     total energy              =    -142.07417223 Ry
     Harris-Foulkes estimate   =    -142.08506549 Ry
     estimated scf accuracy    <       0.05712240 Ry

     iteration #  5     ecut=    80.00 Ry     beta= 0.40
     Davidson diagonalization with overlap
     ethr =  6.14E-05,  avg # of iterations =  7.0

     negative rho (up, down):  6.025E-07 0.000E+00

     total cpu time spent up to now is    75256.7 secs

     total energy              =    -142.08795173 Ry
     Harris-Foulkes estimate   =    -142.09189170 Ry
     estimated scf accuracy    <       0.01805134 Ry

     iteration #  6     ecut=    80.00 Ry     beta= 0.40
     Davidson diagonalization with overlap
     ethr =  1.94E-05,  avg # of iterations =  4.0

     negative rho (up, down):  9.351E-08 0.000E+00

     total cpu time spent up to now is    75273.3 secs

     total energy              =    -142.08876997 Ry
     Harris-Foulkes estimate   =    -142.09161226 Ry
     estimated scf accuracy    <       0.01456516 Ry

     iteration #  7     ecut=    80.00 Ry     beta= 0.40
     Davidson diagonalization with overlap
     ethr =  1.57E-05,  avg # of iterations =  4.0

     negative rho (up, down):  1.925E-08 0.000E+00

     total cpu time spent up to now is    75288.1 secs

     total energy              =    -142.08949067 Ry
     Harris-Foulkes estimate   =    -142.08978719 Ry
     estimated scf accuracy    <       0.00127031 Ry

     iteration #  8     ecut=    80.00 Ry     beta= 0.40
     Davidson diagonalization with overlap
     ethr =  1.37E-06,  avg # of iterations =  6.0

     negative rho (up, down):  1.276E-08 0.000E+00

     total cpu time spent up to now is    75308.9 secs

     total energy              =    -142.08998694 Ry
     Harris-Foulkes estimate   =    -142.09010695 Ry
     estimated scf accuracy    <       0.00097276 Ry

     iteration #  9     ecut=    80.00 Ry     beta= 0.40
     Davidson diagonalization with overlap
     ethr =  1.05E-06,  avg # of iterations =  1.0

     total cpu time spent up to now is    75322.7 secs

     total energy              =    -142.08994789 Ry
     Harris-Foulkes estimate   =    -142.09001752 Ry
     estimated scf accuracy    <       0.00035260 Ry

     iteration # 10     ecut=    80.00 Ry     beta= 0.40
     Davidson diagonalization with overlap
     ethr =  3.79E-07,  avg # of iterations =  7.0

     total cpu time spent up to now is    75340.7 secs

     total energy              =    -142.09000263 Ry
     Harris-Foulkes estimate   =    -142.09000668 Ry
     estimated scf accuracy    <       0.00002898 Ry

     iteration # 11     ecut=    80.00 Ry     beta= 0.40
     Davidson diagonalization with overlap
     ethr =  3.12E-08,  avg # of iterations =  5.0

     total cpu time spent up to now is    75358.3 secs

     total energy              =    -142.09000363 Ry
     Harris-Foulkes estimate   =    -142.09000731 Ry
     estimated scf accuracy    <       0.00001937 Ry

     iteration # 12     ecut=    80.00 Ry     beta= 0.40
     Davidson diagonalization with overlap
     ethr =  2.08E-08,  avg # of iterations =  5.0

     total cpu time spent up to now is    75373.7 secs

     total energy              =    -142.09000465 Ry
     Harris-Foulkes estimate   =    -142.09000509 Ry
     estimated scf accuracy    <       0.00000206 Ry

     iteration # 13     ecut=    80.00 Ry     beta= 0.40
     Davidson diagonalization with overlap
     ethr =  2.22E-09,  avg # of iterations =  5.0

     total cpu time spent up to now is    75393.0 secs

     total energy              =    -142.09000492 Ry
     Harris-Foulkes estimate   =    -142.09000520 Ry
     estimated scf accuracy    <       0.00000114 Ry

     iteration # 14     ecut=    80.00 Ry     beta= 0.40
     Davidson diagonalization with overlap
     ethr =  1.22E-09,  avg # of iterations =  5.0

     total cpu time spent up to now is    75409.4 secs

     total energy              =    -142.09000493 Ry
     Harris-Foulkes estimate   =    -142.09000501 Ry
     estimated scf accuracy    <       0.00000018 Ry

     iteration # 15     ecut=    80.00 Ry     beta= 0.40
     Davidson diagonalization with overlap
     ethr =  1.98E-10,  avg # of iterations =  7.0

     total cpu time spent up to now is    75429.5 secs

     total energy              =    -142.09000491 Ry
     Harris-Foulkes estimate   =    -142.09000496 Ry
     estimated scf accuracy    <       0.00000015 Ry

     iteration # 16     ecut=    80.00 Ry     beta= 0.40
     Davidson diagonalization with overlap
     ethr =  1.65E-10,  avg # of iterations =  4.0

     total cpu time spent up to now is    75445.0 secs

     total energy              =    -142.09000490 Ry
     Harris-Foulkes estimate   =    -142.09000491 Ry
     estimated scf accuracy    <       0.00000001 Ry

     iteration # 17     ecut=    80.00 Ry     beta= 0.40
     Davidson diagonalization with overlap
     ethr =  1.58E-11,  avg # of iterations =  6.0

     total cpu time spent up to now is    75464.7 secs

     total energy              =    -142.09000489 Ry
     Harris-Foulkes estimate   =    -142.09000490 Ry
     estimated scf accuracy    <       0.00000002 Ry

     iteration # 18     ecut=    80.00 Ry     beta= 0.40
     Davidson diagonalization with overlap
     ethr =  1.58E-11,  avg # of iterations =  4.0

     total cpu time spent up to now is    75479.9 secs

     End of self-consistent calculation

          k = 0.0000 0.0000 0.0000 (321809 PWs)   bands (ev):

   -11.6185 -10.9195 -10.8741 -10.7215 -10.7011 -10.4628 -10.3217  -9.1360
    -9.1350  -9.0537  -9.0521  -9.0082  -8.5664  -8.2622  -8.2610  -8.2166
    -8.2103  -7.7558  -7.7292  -6.2019  -6.2015  -6.0334  -6.0330  -5.8456
    -5.8452  -5.6703  -5.5742  -5.4001  -5.3994  -5.0333  -4.9256  -4.8656
    -4.4002  -4.3995  -4.1617  -4.1400  -4.1388  -4.1355  -4.0251  -3.9937
    -3.8693  -3.7868  -3.6045  -3.6026  -2.4561  -2.4550  -2.4072  -2.4059
    -2.3714  -2.0117  -1.9372  -1.9363  -1.7014  -1.7010  -1.6753  -1.6745

     the Fermi energy is    -2.4299 ev

!    total energy              =    -142.09000488 Ry
     Harris-Foulkes estimate   =    -142.09000489 Ry
     estimated scf accuracy    <          3.5E-09 Ry

     The total energy is the sum of the following terms:

     one-electron contribution =    -689.31857181 Ry
     hartree contribution      =     353.47152602 Ry
     xc contribution           =     -63.69370780 Ry
     ewald contribution        =     257.48585845 Ry
     smearing contrib. (-TS)   =      -0.03510973 Ry

     convergence has been achieved in  18 iterations

     Forces acting on atoms (cartesian axes, Ry/au):

     atom    1 type  1   force =    -0.00000234    0.00000058    0.00000000
     atom    2 type  1   force =     0.00000708    0.00000369    0.00000000
     atom    3 type  1   force =    -0.00000238   -0.00000106    0.00000000
     atom    4 type  1   force =     0.00000107   -0.00000244    0.00000000
     atom    5 type  1   force =    -0.00000033    0.00000008    0.00000000
     atom    6 type  1   force =    -0.00000474   -0.00000853    0.00000000
     atom    7 type  1   force =     0.00000188    0.00000144    0.00000000
     atom    8 type  1   force =    -0.00000705    0.00000078    0.00000000
     atom    9 type  1   force =    -0.00000102    0.00000309    0.00000000
     atom   10 type  1   force =    -0.00000967    0.00000099    0.00000000
     atom   11 type  1   force =     0.00000742   -0.00000079    0.00000000
     atom   12 type  1   force =     0.00000073    0.00000287    0.00000000
     atom   13 type  1   force =     0.00000609    0.00001362    0.00000000
     atom   14 type  1   force =    -0.00000099   -0.00000503    0.00000000
     atom   15 type  1   force =    -0.00000390    0.00000802    0.00000000
     atom   16 type  1   force =     0.00000457   -0.00000360    0.00000000
     atom   17 type  1   force =    -0.00000116    0.00000609    0.00000000
     atom   18 type  1   force =    -0.00000289   -0.00000885    0.00000000
     atom   19 type  1   force =     0.00000179   -0.00000607    0.00000000
     atom   20 type  1   force =    -0.00000235   -0.00000707    0.00000000
     atom   21 type  1   force =    -0.00000030    0.00000872    0.00000000
     atom   22 type  1   force =    -0.00000069    0.00000143    0.00000000
     atom   23 type  1   force =    -0.00001192   -0.00000135    0.00000000
     atom   24 type  1   force =    -0.00000723   -0.00000645    0.00000000
     atom   25 type  1   force =    -0.00000062   -0.00001315    0.00000000
     atom   26 type  1   force =     0.00000540    0.00001414    0.00000000
     atom   27 type  1   force =     0.00000250    0.00000253    0.00000000
     atom   28 type  1   force =     0.00000992   -0.00000203    0.00000000
     atom   29 type  1   force =    -0.00000025    0.00000120    0.00000000
     atom   30 type  1   force =     0.00000331   -0.00000132    0.00000000
     atom   31 type  1   force =     0.00000806   -0.00000154    0.00000000

     Total force =     0.000044     Total SCF correction =     0.000061
     SCF correction compared to forces is large: reduce conv_thr to get better values


     Computing stress (Cartesian axis) and pressure

          total   stress  (Ry/bohr**3)                   (kbar)     P=    0.00
   0.00000003  -0.00000000   0.00000000          0.00     -0.00      0.00
  -0.00000000   0.00000004   0.00000000         -0.00      0.01      0.00
   0.00000000   0.00000000  -0.00000001          0.00      0.00     -0.00


     Writing output data file 22al_planar_2x2_vcr.save/
 
     init_run     :     35.25s CPU     41.31s WALL (       2 calls)
     electrons    :  47167.52s CPU  57987.60s WALL (     253 calls)
     update_pot   :   3821.16s CPU   3883.24s WALL (     251 calls)
     forces       :   3195.02s CPU   3330.83s WALL (     253 calls)
     stress       :   9829.83s CPU  10138.68s WALL (     253 calls)

     Called by init_run:
     wfcinit      :     16.99s CPU     22.64s WALL (       2 calls)
     potinit      :      7.01s CPU      7.24s WALL (       2 calls)
     hinit0       :      8.41s CPU      8.51s WALL (       2 calls)

     Called by electrons:
     c_bands      :  39553.81s CPU  48180.24s WALL (    2289 calls)
     sum_band     :   5130.43s CPU   6594.69s WALL (    2289 calls)
     v_of_rho     :   2199.70s CPU   2683.56s WALL (    2467 calls)
     mix_rho      :    438.38s CPU    654.12s WALL (    2289 calls)

     Called by c_bands:
     init_us_2    :    652.84s CPU    674.62s WALL (    4580 calls)
     cegterg      :  33532.22s CPU  42126.74s WALL (    2289 calls)

     Called by sum_band:

     Called by *egterg:
     h_psi        :  29316.92s CPU  37629.50s WALL (   15009 calls)
     g_psi        :    118.39s CPU    123.61s WALL (   12718 calls)
     cdiaghg      :    110.58s CPU    112.77s WALL (   14681 calls)

     Called by h_psi:
     h_psi:pot    :  29229.89s CPU  37409.07s WALL (   15009 calls)
     h_psi:calbec :   3857.67s CPU   3908.57s WALL (   15009 calls)
     vloc_psi     :  21253.29s CPU  29367.37s WALL (   15009 calls)
     add_vuspsi   :   4118.77s CPU   4133.03s WALL (   15009 calls)

     General routines
     calbec       :   4477.87s CPU   4537.89s WALL (   16274 calls)
     fft          :   1777.41s CPU   2177.26s WALL (   31321 calls)
     ffts         :    119.97s CPU    149.89s WALL (    2289 calls)
     fftw         :  22294.74s CPU  31478.48s WALL (  900696 calls)
 
     Parallel routines
     fft_scatt_xy :   4810.43s CPU   6678.99s WALL (  934306 calls)
     fft_scatt_yz :   7011.73s CPU   8953.25s WALL (  934306 calls)
 
     PWSCF        :    17h48m CPU       48h20m WALL

      58h
 
   This run was terminated on:   5:34:50  27Nov2020            

=------------------------------------------------------------------------------=
   JOB DONE.
=------------------------------------------------------------------------------=
