
     Program PWSCF v.6.3MaX starts on 26Nov2020 at  9:16:59 

     This program is part of the open-source Quantum ESPRESSO suite
     for quantum simulation of materials; please cite
         "P. Giannozzi et al., J. Phys.:Condens. Matter 21 395502 (2009);
         "P. Giannozzi et al., J. Phys.:Condens. Matter 29 465901 (2017);
          URL http://www.quantum-espresso.org", 
     in publications or presentations arising from this work. More details at
     http://www.quantum-espresso.org/quote

     Parallel version (MPI), running on     8 processors

     MPI processes distributed on     2 nodes
     R & G space division:  proc/nbgrp/npool/nimage =       8
     Waiting for input...
     Reading input from standard input

     Current dimensions of program PWSCF are:
     Max number of different atomic species (ntypx) = 10
     Max number of k-points (npk) =  40000
     Max angular momentum in pseudopotentials (lmaxx) =  3

     Subspace diagonalization in iterative solution of the eigenvalue problem:
     a serial algorithm will be used

 
     Parallelization info
     --------------------
     sticks:   dense  smooth     PW     G-vecs:    dense   smooth      PW
     Min        3123    3123    778               448599   448599   56048
     Max        3124    3124    779               448604   448604   56052
     Sum       24985   24985   6229              3588803  3588803  448403
 


     bravais-lattice index     =            4
     lattice parameter (alat)  =      33.6810  a.u.
     unit-cell volume          =   37130.3117 (a.u.)^3
     number of atoms/cell      =           31
     number of atomic types    =            1
     number of electrons       =        93.00
     number of Kohn-Sham states=           56
     kinetic-energy cutoff     =      80.0000  Ry
     charge density cutoff     =     320.0000  Ry
     convergence threshold     =      1.0E-06
     mixing beta               =       0.4000
     number of iterations used =            8  plain     mixing
     Exchange-correlation      = PBE ( 1  4  3  4 0 0)
     nstep                     =          300


     celldm(1)=  33.680967  celldm(2)=   0.000000  celldm(3)=   1.122133
     celldm(4)=   0.000000  celldm(5)=   0.000000  celldm(6)=   0.000000

     crystal axes: (cart. coord. in units of alat)
               a(1) = (   1.000000   0.000000   0.000000 )  
               a(2) = (  -0.500000   0.866025   0.000000 )  
               a(3) = (   0.000000   0.000000   1.122133 )  

     reciprocal axes: (cart. coord. in units 2 pi/alat)
               b(1) = (  1.000000  0.577350  0.000000 )  
               b(2) = (  0.000000  1.154701  0.000000 )  
               b(3) = (  0.000000  0.000000  0.891160 )  


     PseudoPot. # 1 for Al read from file:
     ./Al.upf
     MD5 check sum: 4974d48a734c9d7d1eb6780a1419d19d
     Pseudo is Norm-conserving + core correction, Zval =  3.0
     Generated using ONCVPSP code by D. R. Hamann
     Using radial grid of 1876 points,  6 beta functions with: 
                l(1) =   0
                l(2) =   0
                l(3) =   1
                l(4) =   1
                l(5) =   2
                l(6) =   2

     atomic species   valence    mass     pseudopotential
        Al             3.00    29.98200     Al( 1.00)

      4 Sym. Ops. (no inversion) found ( 2 have fractional translation)



   Cartesian axes

     site n.     atom                  positions (alat units)
         1           Al  tau(   1) = (  -0.0000000   0.1443393   0.0000000  )
         2           Al  tau(   2) = (   0.1250015   0.0721696   0.0000000  )
         3           Al  tau(   3) = (  -0.1249997   0.3608472   0.0000000  )
         4           Al  tau(   4) = (   0.0000018   0.2886775   0.0000000  )
         5           Al  tau(   5) = (  -0.2499994   0.5773550   0.0000000  )
         6           Al  tau(   6) = (  -0.1249979   0.5051854   0.0000000  )
         7           Al  tau(   7) = (  -0.3749991   0.7938629   0.0000000  )
         8           Al  tau(   8) = (  -0.2499976   0.7216932   0.0000000  )
         9           Al  tau(   9) = (   0.2500011   0.1443403   0.0000000  )
        10           Al  tau(  10) = (   0.3750027   0.0721706   0.0000000  )
        11           Al  tau(  11) = (   0.1250014   0.3608482   0.0000000  )
        12           Al  tau(  12) = (   0.2500030   0.2886785   0.0000000  )
        13           Al  tau(  13) = (   0.0000017   0.5773560   0.0000000  )
        14           Al  tau(  14) = (   0.1250033   0.5051864   0.0000000  )
        15           Al  tau(  15) = (  -0.1249980   0.7938639   0.0000000  )
        16           Al  tau(  16) = (   0.0000036   0.7216942   0.0000000  )
        17           Al  tau(  17) = (   0.5000023   0.1443413   0.0000000  )
        18           Al  tau(  18) = (   0.6250038   0.0721717   0.0000000  )
        19           Al  tau(  19) = (   0.3750026   0.3608492   0.0000000  )
        20           Al  tau(  20) = (   0.5000041   0.2886795   0.0000000  )
        21           Al  tau(  21) = (   0.2500029   0.5773571   0.0000000  )
        22           Al  tau(  22) = (   0.3750044   0.5051874   0.0000000  )
        23           Al  tau(  23) = (   0.1250032   0.7938649   0.0000000  )
        24           Al  tau(  24) = (   0.2500047   0.7216953   0.0000000  )
        25           Al  tau(  25) = (   0.7500035   0.1443423   0.0000000  )
        26           Al  tau(  26) = (   0.8750050   0.0721727   0.0000000  )
        27           Al  tau(  27) = (   0.6250038   0.3608502   0.0000000  )
        28           Al  tau(  28) = (   0.7500053   0.2886805   0.0000000  )
        29           Al  tau(  29) = (   0.5000041   0.5773581   0.0000000  )
        30           Al  tau(  30) = (   0.3750044   0.7938660   0.0000000  )
        31           Al  tau(  31) = (   0.5000059   0.7216963   0.0000000  )

     number of k points=     1  Methfessel-Paxton smearing, width (Ry)=  0.0500
                       cart. coord. in units 2pi/alat
        k(    1) = (   0.0000000   0.0000000   0.0000000), wk =   2.0000000

     Dense  grid:  3588803 G-vectors     FFT dimensions: ( 192, 192, 216)

     Estimated max dynamical RAM per process >       1.15 GB

     Estimated total dynamical RAM >       9.23 GB

     Initial potential from superposition of free atoms

     starting charge   92.92414, renormalised to   93.00000

     negative rho (up, down):  9.278E-05 0.000E+00
     Starting wfcs are  124 randomized atomic wfcs

     total cpu time spent up to now is       29.6 secs

     Self-consistent Calculation

     iteration #  1     ecut=    80.00 Ry     beta= 0.40
     Davidson diagonalization with overlap
     ethr =  1.00E-02,  avg # of iterations =  2.0

     total cpu time spent up to now is       57.3 secs

     total energy              =    -140.64206276 Ry
     Harris-Foulkes estimate   =    -141.23600835 Ry
     estimated scf accuracy    <       1.54881661 Ry

     iteration #  2     ecut=    80.00 Ry     beta= 0.40
     Davidson diagonalization with overlap
     ethr =  1.67E-03,  avg # of iterations =  5.0

     total cpu time spent up to now is       85.5 secs

     total energy              =    -140.21873237 Ry
     Harris-Foulkes estimate   =    -141.45891243 Ry
     estimated scf accuracy    <       6.75569277 Ry

     iteration #  3     ecut=    80.00 Ry     beta= 0.40
     Davidson diagonalization with overlap
     ethr =  1.67E-03,  avg # of iterations =  5.0

     negative rho (up, down):  2.208E-07 0.000E+00

     total cpu time spent up to now is      111.9 secs

     total energy              =    -140.82811807 Ry
     Harris-Foulkes estimate   =    -141.02347761 Ry
     estimated scf accuracy    <       1.17300903 Ry

     iteration #  4     ecut=    80.00 Ry     beta= 0.40
     Davidson diagonalization with overlap
     ethr =  1.26E-03,  avg # of iterations =  1.0

     negative rho (up, down):  5.807E-06 0.000E+00

     total cpu time spent up to now is      132.5 secs

     total energy              =    -140.90081058 Ry
     Harris-Foulkes estimate   =    -140.94411236 Ry
     estimated scf accuracy    <       0.14884349 Ry

     iteration #  5     ecut=    80.00 Ry     beta= 0.40
     Davidson diagonalization with overlap
     ethr =  1.60E-04,  avg # of iterations =  5.0

     negative rho (up, down):  9.078E-06 0.000E+00

     total cpu time spent up to now is      156.6 secs

     total energy              =    -140.91340859 Ry
     Harris-Foulkes estimate   =    -140.95559030 Ry
     estimated scf accuracy    <       0.30379951 Ry

     iteration #  6     ecut=    80.00 Ry     beta= 0.40
     Davidson diagonalization with overlap
     ethr =  1.60E-04,  avg # of iterations =  3.0

     negative rho (up, down):  1.940E-05 0.000E+00

     total cpu time spent up to now is      179.3 secs

     total energy              =    -140.93237709 Ry
     Harris-Foulkes estimate   =    -140.93469416 Ry
     estimated scf accuracy    <       0.01000355 Ry

     iteration #  7     ecut=    80.00 Ry     beta= 0.40
     Davidson diagonalization with overlap
     ethr =  1.08E-05,  avg # of iterations = 11.0

     negative rho (up, down):  3.241E-05 0.000E+00

     total cpu time spent up to now is      216.9 secs

     total energy              =    -140.93559809 Ry
     Harris-Foulkes estimate   =    -140.93684960 Ry
     estimated scf accuracy    <       0.00654806 Ry

     iteration #  8     ecut=    80.00 Ry     beta= 0.40
     Davidson diagonalization with overlap
     ethr =  7.04E-06,  avg # of iterations =  3.0

     negative rho (up, down):  3.443E-05 0.000E+00

     total cpu time spent up to now is      239.7 secs

     total energy              =    -140.93570421 Ry
     Harris-Foulkes estimate   =    -140.93660191 Ry
     estimated scf accuracy    <       0.00508225 Ry

     iteration #  9     ecut=    80.00 Ry     beta= 0.40
     Davidson diagonalization with overlap
     ethr =  5.46E-06,  avg # of iterations =  1.0

     negative rho (up, down):  3.513E-05 0.000E+00

     total cpu time spent up to now is      260.5 secs

     total energy              =    -140.93590796 Ry
     Harris-Foulkes estimate   =    -140.93619553 Ry
     estimated scf accuracy    <       0.00164082 Ry

     iteration # 10     ecut=    80.00 Ry     beta= 0.40
     Davidson diagonalization with overlap
     ethr =  1.76E-06,  avg # of iterations =  4.0

     negative rho (up, down):  3.665E-05 0.000E+00

     total cpu time spent up to now is      283.1 secs

     total energy              =    -140.93600741 Ry
     Harris-Foulkes estimate   =    -140.93609701 Ry
     estimated scf accuracy    <       0.00042340 Ry

     iteration # 11     ecut=    80.00 Ry     beta= 0.40
     Davidson diagonalization with overlap
     ethr =  4.55E-07,  avg # of iterations =  5.0

     negative rho (up, down):  3.712E-05 0.000E+00

     total cpu time spent up to now is      309.8 secs

     total energy              =    -140.93608324 Ry
     Harris-Foulkes estimate   =    -140.93613329 Ry
     estimated scf accuracy    <       0.00029267 Ry

     iteration # 12     ecut=    80.00 Ry     beta= 0.40
     Davidson diagonalization with overlap
     ethr =  3.15E-07,  avg # of iterations =  3.0

     negative rho (up, down):  3.777E-05 0.000E+00

     total cpu time spent up to now is      331.3 secs

     total energy              =    -140.93610582 Ry
     Harris-Foulkes estimate   =    -140.93612027 Ry
     estimated scf accuracy    <       0.00008323 Ry

     iteration # 13     ecut=    80.00 Ry     beta= 0.40
     Davidson diagonalization with overlap
     ethr =  8.95E-08,  avg # of iterations =  3.0

     negative rho (up, down):  3.796E-05 0.000E+00

     total cpu time spent up to now is      352.5 secs

     total energy              =    -140.93611230 Ry
     Harris-Foulkes estimate   =    -140.93611549 Ry
     estimated scf accuracy    <       0.00001557 Ry

     iteration # 14     ecut=    80.00 Ry     beta= 0.40
     Davidson diagonalization with overlap
     ethr =  1.67E-08,  avg # of iterations =  5.0

     negative rho (up, down):  3.804E-05 0.000E+00

     total cpu time spent up to now is      379.2 secs

     total energy              =    -140.93611465 Ry
     Harris-Foulkes estimate   =    -140.93611619 Ry
     estimated scf accuracy    <       0.00000658 Ry

     iteration # 15     ecut=    80.00 Ry     beta= 0.40
     Davidson diagonalization with overlap
     ethr =  7.08E-09,  avg # of iterations =  4.0

     negative rho (up, down):  3.813E-05 0.000E+00

     total cpu time spent up to now is      402.5 secs

     total energy              =    -140.93611481 Ry
     Harris-Foulkes estimate   =    -140.93611609 Ry
     estimated scf accuracy    <       0.00000760 Ry

     iteration # 16     ecut=    80.00 Ry     beta= 0.40
     Davidson diagonalization with overlap
     ethr =  7.08E-09,  avg # of iterations =  3.0

     negative rho (up, down):  3.831E-05 0.000E+00

     total cpu time spent up to now is      423.1 secs

     End of self-consistent calculation

          k = 0.0000 0.0000 0.0000 (448403 PWs)   bands (ev):

    -9.9530  -9.4485  -9.4330  -9.4326  -9.4262  -9.4258  -9.1458  -8.4049
    -8.4047  -8.3881  -8.3880  -8.3798  -8.3036  -8.2571  -8.2569  -7.5862
    -6.9325  -6.9324  -6.8235  -6.4866  -6.4773  -6.4772  -6.3701  -6.3700
    -5.4641  -4.8435  -4.8433  -4.8370  -4.7357  -4.7354  -4.4779  -4.4680
    -4.4430  -4.4430  -4.1226  -4.1224  -3.9779  -3.4713  -3.4688  -3.4685
    -3.4578  -3.4575  -3.4017  -3.2746  -3.2742  -3.2223  -3.2074  -2.9743
    -2.9653  -2.9652  -2.9389  -2.5199  -2.5196  -2.4498  -2.4483  -2.4314

     the Fermi energy is    -3.0910 ev

!    total energy              =    -140.93611478 Ry
     Harris-Foulkes estimate   =    -140.93611558 Ry
     estimated scf accuracy    <       0.00000095 Ry

     The total energy is the sum of the following terms:

     one-electron contribution =    -502.03652317 Ry
     hartree contribution      =     259.76376245 Ry
     xc contribution           =     -61.33579811 Ry
     ewald contribution        =     162.75343587 Ry
     smearing contrib. (-TS)   =      -0.08099182 Ry

     convergence has been achieved in  16 iterations

     negative rho (up, down):  3.831E-05 0.000E+00

     Forces acting on atoms (cartesian axes, Ry/au):

     atom    1 type  1   force =    -0.00043919   -0.00029944    0.00000000
     atom    2 type  1   force =     0.00000000    0.00136871    0.00000000
     atom    3 type  1   force =    -0.00110672    0.00061062    0.00000000
     atom    4 type  1   force =     0.00113970   -0.00058833    0.00000000
     atom    5 type  1   force =    -0.01313358   -0.00754388    0.00000000
     atom    6 type  1   force =     0.00259302   -0.00216645    0.00000000
     atom    7 type  1   force =     0.00000000   -0.00135066    0.00000000
     atom    8 type  1   force =    -0.00061526    0.00328862    0.00000000
     atom    9 type  1   force =     0.00043919   -0.00029944    0.00000000
     atom   10 type  1   force =     0.00204924   -0.00116200    0.00000000
     atom   11 type  1   force =     0.00000000    0.00052403    0.00000000
     atom   12 type  1   force =    -0.00113970   -0.00058833    0.00000000
     atom   13 type  1   force =    -0.00372286   -0.00397461    0.00000000
     atom   14 type  1   force =     0.00000000    0.00228969    0.00000000
     atom   15 type  1   force =    -0.00529879   -0.00121136    0.00000000
     atom   16 type  1   force =     0.00188163    0.00107654    0.00000000
     atom   17 type  1   force =    -0.00158905    0.00515950    0.00000000
     atom   18 type  1   force =     0.00000000   -0.00212143    0.00000000
     atom   19 type  1   force =     0.00110672    0.00061062    0.00000000
     atom   20 type  1   force =    -0.00318631   -0.00112287    0.00000000
     atom   21 type  1   force =     0.00372286   -0.00397461    0.00000000
     atom   22 type  1   force =    -0.00259302   -0.00216645    0.00000000
     atom   23 type  1   force =     0.00000000   -0.00001324    0.00000000
     atom   24 type  1   force =    -0.00188163    0.00107654    0.00000000
     atom   25 type  1   force =     0.00158905    0.00515950    0.00000000
     atom   26 type  1   force =    -0.00204924   -0.00116200    0.00000000
     atom   27 type  1   force =     0.00000000    0.01517021    0.00000000
     atom   28 type  1   force =     0.00318631   -0.00112287    0.00000000
     atom   29 type  1   force =     0.01313358   -0.00754388    0.00000000
     atom   30 type  1   force =     0.00529879   -0.00121136    0.00000000
     atom   31 type  1   force =     0.00061526    0.00328862    0.00000000

     Total force =     0.031224     Total SCF correction =     0.000751


     Computing stress (Cartesian axis) and pressure


     negative rho (up, down):  3.831E-05 0.000E+00
          total   stress  (Ry/bohr**3)                   (kbar)     P=   -0.57
  -0.00000581   0.00000000   0.00000000         -0.86      0.00      0.00
   0.00000000  -0.00000575  -0.00000000          0.00     -0.85     -0.00
   0.00000000  -0.00000000   0.00000001          0.00     -0.00      0.00


     BFGS Geometry Optimization

     number of scf cycles    =   1
     number of bfgs steps    =   0

     enthalpy new            =    -140.9361147840 Ry

     new trust radius        =       0.0151702132 bohr
     new conv_thr            =       0.0000010000 Ry

     new unit-cell volume =  37119.58060 a.u.^3 (  5500.55427 Ang^3 )
     density =      0.28059 g/cm^3

CELL_PARAMETERS (alat= 33.68096681)
   0.999854689   0.000000000   0.000000000
  -0.499927344   0.865900937   0.000000000
   0.000000000   0.000000000   1.122132950

ATOMIC_POSITIONS (angstrom)
Al      -0.000232959   2.572059701   0.000000000
Al       2.227602998   1.286832745   0.000000000
Al      -2.228157055   6.430849713   0.000000000
Al       0.000635111   5.144105775   0.000000000
Al      -4.462091375  10.284843659   0.000000000
Al      -2.226166843   9.001579290   0.000000000
Al      -6.682713297  14.146428998   0.000000000
Al      -4.455435246  12.862774074   0.000000000
Al       4.455405104   2.572077894   0.000000000
Al       6.683860570   1.285511938   0.000000000
Al       2.227601826   6.430822092   0.000000000
Al       4.454602394   5.144123968   0.000000000
Al      -0.001938842  10.286750356   0.000000000
Al       2.227634507   9.003955231   0.000000000
Al      -2.230343573  14.146520895   0.000000000
Al       0.001059175  12.861621852   0.000000000
Al       8.909505280   2.574984419   0.000000000
Al      11.137949630   1.285022493   0.000000000
Al       6.683360708   6.430886100   0.000000000
Al       8.908692848   5.143859332   0.000000000
Al       4.457174003  10.286768549   0.000000000
Al       6.681435856   9.001615676   0.000000000
Al       2.227633335  14.147173015   0.000000000
Al       4.454241347  12.861640045   0.000000000
Al      13.366360128   2.575002613   0.000000000
Al      15.592038691   1.285548325   0.000000000
Al      11.137948459   6.438607791   0.000000000
Al      13.367237921   5.143877526   0.000000000
Al       8.917326536  10.284898239   0.000000000
Al       6.685610243  14.146557282   0.000000000
Al       8.910735767  12.862828654   0.000000000



     Writing output data file 30al_planar_2x2_vcr.save/
     NEW-OLD atomic charge density approx. for the potential

     negative rho (up, down):  3.833E-05 0.000E+00
     extrapolated charge   92.97314, renormalised to   93.00000

     total cpu time spent up to now is      499.3 secs

     Self-consistent Calculation

     iteration #  1     ecut=    80.00 Ry     beta= 0.40
     Davidson diagonalization with overlap
     ethr =  1.00E-06,  avg # of iterations =  4.0

     Threshold (ethr) on eigenvalues was too large:
     Diagonalizing with lowered threshold

     Davidson diagonalization with overlap
     ethr =  9.04E-08,  avg # of iterations =  5.0

     negative rho (up, down):  3.839E-05 0.000E+00

     total cpu time spent up to now is      551.9 secs

     total energy              =    -140.93706253 Ry
     Harris-Foulkes estimate   =    -141.07007176 Ry
     estimated scf accuracy    <       0.00011411 Ry

     iteration #  2     ecut=    80.00 Ry     beta= 0.40
     Davidson diagonalization with overlap
     ethr =  1.23E-07,  avg # of iterations =  5.0

     negative rho (up, down):  3.838E-05 0.000E+00

     total cpu time spent up to now is      580.0 secs

     total energy              =    -140.93699582 Ry
     Harris-Foulkes estimate   =    -140.93723349 Ry
     estimated scf accuracy    <       0.00179750 Ry

     iteration #  3     ecut=    80.00 Ry     beta= 0.40
     Davidson diagonalization with overlap
     ethr =  1.23E-07,  avg # of iterations =  4.0

     negative rho (up, down):  3.837E-05 0.000E+00

     total cpu time spent up to now is      607.0 secs

     total energy              =    -140.93711423 Ry
     Harris-Foulkes estimate   =    -140.93712122 Ry
     estimated scf accuracy    <       0.00003418 Ry

     iteration #  4     ecut=    80.00 Ry     beta= 0.40
     Davidson diagonalization with overlap
     ethr =  3.68E-08,  avg # of iterations =  3.0

     negative rho (up, down):  3.834E-05 0.000E+00

     total cpu time spent up to now is      629.7 secs

     total energy              =    -140.93711599 Ry
     Harris-Foulkes estimate   =    -140.93711875 Ry
     estimated scf accuracy    <       0.00001083 Ry

     iteration #  5     ecut=    80.00 Ry     beta= 0.40
     Davidson diagonalization with overlap
     ethr =  1.16E-08,  avg # of iterations =  4.0

     negative rho (up, down):  3.832E-05 0.000E+00

     total cpu time spent up to now is      652.2 secs

     total energy              =    -140.93711676 Ry
     Harris-Foulkes estimate   =    -140.93711925 Ry
     estimated scf accuracy    <       0.00001537 Ry

     iteration #  6     ecut=    80.00 Ry     beta= 0.40
     Davidson diagonalization with overlap
     ethr =  1.16E-08,  avg # of iterations =  3.0

     negative rho (up, down):  3.830E-05 0.000E+00

     total cpu time spent up to now is      674.3 secs

     total energy              =    -140.93711799 Ry
     Harris-Foulkes estimate   =    -140.93711825 Ry
     estimated scf accuracy    <       0.00000127 Ry

     iteration #  7     ecut=    80.00 Ry     beta= 0.40
     Davidson diagonalization with overlap
     ethr =  1.37E-09,  avg # of iterations =  5.0

     negative rho (up, down):  3.829E-05 0.000E+00

     total cpu time spent up to now is      702.7 secs

     total energy              =    -140.93711761 Ry
     Harris-Foulkes estimate   =    -140.93711853 Ry
     estimated scf accuracy    <       0.00000706 Ry

     iteration #  8     ecut=    80.00 Ry     beta= 0.40
     Davidson diagonalization with overlap
     ethr =  1.37E-09,  avg # of iterations =  4.0

     negative rho (up, down):  3.829E-05 0.000E+00

     total cpu time spent up to now is      726.1 secs

     End of self-consistent calculation

          k = 0.0000 0.0000 0.0000 (448403 PWs)   bands (ev):

    -9.9534  -9.4487  -9.4337  -9.4333  -9.4256  -9.4253  -9.1440  -8.4042
    -8.4040  -8.3846  -8.3845  -8.3829  -8.3051  -8.2546  -8.2545  -7.5852
    -6.9324  -6.9323  -6.8229  -6.4824  -6.4777  -6.4775  -6.3723  -6.3722
    -5.4694  -4.8397  -4.8395  -4.8351  -4.7366  -4.7365  -4.4766  -4.4673
    -4.4432  -4.4432  -4.1253  -4.1250  -3.9780  -3.4712  -3.4679  -3.4675
    -3.4584  -3.4581  -3.4000  -3.2734  -3.2730  -3.2212  -3.2175  -2.9705
    -2.9636  -2.9635  -2.9412  -2.5172  -2.5169  -2.4465  -2.4452  -2.4337

     the Fermi energy is    -3.0908 ev

!    total energy              =    -140.93711745 Ry
     Harris-Foulkes estimate   =    -140.93711789 Ry
     estimated scf accuracy    <       0.00000056 Ry

     The total energy is the sum of the following terms:

     one-electron contribution =    -502.12520514 Ry
     hartree contribution      =     259.80783239 Ry
     xc contribution           =     -61.33404520 Ry
     ewald contribution        =     162.79497662 Ry
     smearing contrib. (-TS)   =      -0.08067613 Ry

     convergence has been achieved in   8 iterations

     negative rho (up, down):  3.829E-05 0.000E+00

     Forces acting on atoms (cartesian axes, Ry/au):

     atom    1 type  1   force =    -0.00062927   -0.00040179    0.00000000
     atom    2 type  1   force =    -0.00000000    0.00110896    0.00000000
     atom    3 type  1   force =    -0.00080593    0.00044995    0.00000000
     atom    4 type  1   force =     0.00090788   -0.00048000    0.00000000
     atom    5 type  1   force =    -0.01296634   -0.00746069    0.00000000
     atom    6 type  1   force =     0.00140507   -0.00158923    0.00000000
     atom    7 type  1   force =     0.00000000   -0.00096278    0.00000000
     atom    8 type  1   force =    -0.00069664    0.00195686    0.00000000
     atom    9 type  1   force =     0.00062927   -0.00040179    0.00000000
     atom   10 type  1   force =     0.00198938   -0.00112369    0.00000000
     atom   11 type  1   force =    -0.00000000    0.00073457    0.00000000
     atom   12 type  1   force =    -0.00090788   -0.00048000    0.00000000
     atom   13 type  1   force =    -0.00329991   -0.00321665    0.00000000
     atom   14 type  1   force =    -0.00000000    0.00225352    0.00000000
     atom   15 type  1   force =    -0.00443283   -0.00120323    0.00000000
     atom   16 type  1   force =     0.00140428    0.00077454    0.00000000
     atom   17 type  1   force =    -0.00114986    0.00439929    0.00000000
     atom   18 type  1   force =     0.00000000   -0.00156088    0.00000000
     atom   19 type  1   force =     0.00080593    0.00044995    0.00000000
     atom   20 type  1   force =    -0.00209195   -0.00037311    0.00000000
     atom   21 type  1   force =     0.00329991   -0.00321665    0.00000000
     atom   22 type  1   force =    -0.00140507   -0.00158923    0.00000000
     atom   23 type  1   force =     0.00000000   -0.00000790    0.00000000
     atom   24 type  1   force =    -0.00140428    0.00077454    0.00000000
     atom   25 type  1   force =     0.00114986    0.00439929    0.00000000
     atom   26 type  1   force =    -0.00198938   -0.00112369    0.00000000
     atom   27 type  1   force =    -0.00000000    0.01497004    0.00000000
     atom   28 type  1   force =     0.00209195   -0.00037311    0.00000000
     atom   29 type  1   force =     0.01296634   -0.00746069    0.00000000
     atom   30 type  1   force =     0.00443283   -0.00120323    0.00000000
     atom   31 type  1   force =     0.00069664    0.00195686    0.00000000

     Total force =     0.029242     Total SCF correction =     0.000559


     Computing stress (Cartesian axis) and pressure


     negative rho (up, down):  3.829E-05 0.000E+00
          total   stress  (Ry/bohr**3)                   (kbar)     P=   -0.58
  -0.00000595   0.00000000  -0.00000000         -0.87      0.00     -0.00
   0.00000000  -0.00000589   0.00000000          0.00     -0.87      0.00
  -0.00000000   0.00000000   0.00000002         -0.00      0.00      0.00


     number of scf cycles    =   2
     number of bfgs steps    =   1

     enthalpy old            =    -140.9361147840 Ry
     enthalpy new            =    -140.9371174512 Ry

     CASE: enthalpy_new < enthalpy_old


     WARNING: bfgs curvature condition failed, Theta= 0.855
     new trust radius        =       0.0227520494 bohr
     new conv_thr            =       0.0000010000 Ry

     new unit-cell volume =  37103.11470 a.u.^3 (  5498.11427 Ang^3 )
     density =      0.28071 g/cm^3

CELL_PARAMETERS (alat= 33.68096681)
   0.999631791   0.000000000   0.000000000
  -0.499815896   0.865709824   0.000000000
   0.000000000   0.000000000   1.122132950

ATOMIC_POSITIONS (angstrom)
Al      -0.000678480   2.571201732   0.000000000
Al       2.227106399   1.287514965   0.000000000
Al      -2.228396629   6.429839227   0.000000000
Al       0.001431837   5.142553444   0.000000000
Al      -4.471520787  10.276579690   0.000000000
Al      -2.224184948   8.998145465   0.000000000
Al      -6.681223522  14.142418450   0.000000000
Al      -4.454974552  12.861905959   0.000000000
Al       4.454857433   2.571219922   0.000000000
Al       6.683980289   1.284317580   0.000000000
Al       2.227105228   6.429926335   0.000000000
Al       4.452812463   5.142571633   0.000000000
Al      -0.004707099  10.281675913   0.000000000
Al       2.227137901   9.003781828   0.000000000
Al      -2.233656234  14.142433533   0.000000000
Al       0.002327659  12.859494716   0.000000000
Al       8.906465521   2.578166964   0.000000000
Al      11.135466650   1.283319544   0.000000000
Al       6.682607084   6.429875606   0.000000000
Al       8.904700190   5.142197353   0.000000000
Al       4.458949056  10.281694103   0.000000000
Al       6.678460750   8.998181844   0.000000000
Al       2.227136729  14.144042646   0.000000000
Al       4.451979644  12.859512906   0.000000000
Al      13.364433935   2.578185153   0.000000000
Al      15.586953011   1.284353959   0.000000000
Al      11.135465479   6.449223933   0.000000000
Al      13.366264612   5.142215543   0.000000000
Al       8.925762744  10.276634259   0.000000000
Al       6.687929692  14.142469912   0.000000000
Al       8.909281855  12.861960527   0.000000000



     Writing output data file 30al_planar_2x2_vcr.save/
     NEW-OLD atomic charge density approx. for the potential

     negative rho (up, down):  3.831E-05 0.000E+00
     extrapolated charge   92.95876, renormalised to   93.00000

     total cpu time spent up to now is      799.8 secs

     Self-consistent Calculation

     iteration #  1     ecut=    80.00 Ry     beta= 0.40
     Davidson diagonalization with overlap
     ethr =  1.00E-06,  avg # of iterations =  4.0

     negative rho (up, down):  3.838E-05 0.000E+00

     total cpu time spent up to now is      831.3 secs

     total energy              =    -140.93841360 Ry
     Harris-Foulkes estimate   =    -141.14262212 Ry
     estimated scf accuracy    <       0.00013039 Ry

     iteration #  2     ecut=    80.00 Ry     beta= 0.40
     Davidson diagonalization with overlap
     ethr =  1.40E-07,  avg # of iterations =  5.0

     negative rho (up, down):  3.836E-05 0.000E+00

     total cpu time spent up to now is      863.2 secs

     total energy              =    -140.93837373 Ry
     Harris-Foulkes estimate   =    -140.93859632 Ry
     estimated scf accuracy    <       0.00170852 Ry

     iteration #  3     ecut=    80.00 Ry     beta= 0.40
     Davidson diagonalization with overlap
     ethr =  1.40E-07,  avg # of iterations =  5.0

     negative rho (up, down):  3.834E-05 0.000E+00

     total cpu time spent up to now is      892.7 secs

     total energy              =    -140.93848153 Ry
     Harris-Foulkes estimate   =    -140.93848929 Ry
     estimated scf accuracy    <       0.00003531 Ry

     iteration #  4     ecut=    80.00 Ry     beta= 0.40
     Davidson diagonalization with overlap
     ethr =  3.80E-08,  avg # of iterations =  3.0

     negative rho (up, down):  3.831E-05 0.000E+00

     total cpu time spent up to now is      915.0 secs

     total energy              =    -140.93848232 Ry
     Harris-Foulkes estimate   =    -140.93848648 Ry
     estimated scf accuracy    <       0.00001550 Ry

     iteration #  5     ecut=    80.00 Ry     beta= 0.40
     Davidson diagonalization with overlap
     ethr =  1.67E-08,  avg # of iterations =  5.0

     negative rho (up, down):  3.827E-05 0.000E+00

     total cpu time spent up to now is      938.3 secs

     total energy              =    -140.93848236 Ry
     Harris-Foulkes estimate   =    -140.93848748 Ry
     estimated scf accuracy    <       0.00003150 Ry

     iteration #  6     ecut=    80.00 Ry     beta= 0.40
     Davidson diagonalization with overlap
     ethr =  1.67E-08,  avg # of iterations =  4.0

     negative rho (up, down):  3.825E-05 0.000E+00

     total cpu time spent up to now is      961.1 secs

     total energy              =    -140.93848499 Ry
     Harris-Foulkes estimate   =    -140.93848565 Ry
     estimated scf accuracy    <       0.00000398 Ry

     iteration #  7     ecut=    80.00 Ry     beta= 0.40
     Davidson diagonalization with overlap
     ethr =  4.28E-09,  avg # of iterations =  4.0

     negative rho (up, down):  3.825E-05 0.000E+00

     total cpu time spent up to now is      983.6 secs

     total energy              =    -140.93848520 Ry
     Harris-Foulkes estimate   =    -140.93848574 Ry
     estimated scf accuracy    <       0.00000326 Ry

     iteration #  8     ecut=    80.00 Ry     beta= 0.40
     Davidson diagonalization with overlap
     ethr =  3.51E-09,  avg # of iterations =  1.0

     negative rho (up, down):  3.826E-05 0.000E+00

     total cpu time spent up to now is     1004.0 secs

     End of self-consistent calculation

          k = 0.0000 0.0000 0.0000 (448403 PWs)   bands (ev):

    -9.9541  -9.4492  -9.4356  -9.4353  -9.4239  -9.4237  -9.1415  -8.4034
    -8.4032  -8.3871  -8.3800  -8.3799  -8.3072  -8.2508  -8.2507  -7.5838
    -6.9324  -6.9324  -6.8227  -6.4780  -6.4780  -6.4767  -6.3751  -6.3749
    -5.4773  -4.8345  -4.8344  -4.8327  -4.7376  -4.7374  -4.4748  -4.4662
    -4.4436  -4.4436  -4.1293  -4.1291  -3.9783  -3.4712  -3.4670  -3.4666
    -3.4589  -3.4585  -3.3975  -3.2716  -3.2712  -3.2328  -3.2197  -2.9653
    -2.9610  -2.9610  -2.9437  -2.5135  -2.5132  -2.4420  -2.4409  -2.4367

     the Fermi energy is    -3.0906 ev

!    total energy              =    -140.93848535 Ry
     Harris-Foulkes estimate   =    -140.93848552 Ry
     estimated scf accuracy    <       0.00000034 Ry

     The total energy is the sum of the following terms:

     one-electron contribution =    -502.26113225 Ry
     hartree contribution      =     259.87495554 Ry
     xc contribution           =     -61.33153539 Ry
     ewald contribution        =     162.85938281 Ry
     smearing contrib. (-TS)   =      -0.08015607 Ry

     convergence has been achieved in   8 iterations

     negative rho (up, down):  3.826E-05 0.000E+00

     Forces acting on atoms (cartesian axes, Ry/au):

     atom    1 type  1   force =    -0.00088249   -0.00053835    0.00000000
     atom    2 type  1   force =    -0.00000000    0.00075799    0.00000000
     atom    3 type  1   force =    -0.00040204    0.00021091    0.00000000
     atom    4 type  1   force =     0.00063578   -0.00031902    0.00000000
     atom    5 type  1   force =    -0.01284421   -0.00737851    0.00000000
     atom    6 type  1   force =    -0.00018033   -0.00079354    0.00000000
     atom    7 type  1   force =     0.00000000   -0.00048365    0.00000000
     atom    8 type  1   force =    -0.00077275    0.00019777    0.00000000
     atom    9 type  1   force =     0.00088249   -0.00053835    0.00000000
     atom   10 type  1   force =     0.00194039   -0.00110353    0.00000000
     atom   11 type  1   force =    -0.00000000    0.00105087    0.00000000
     atom   12 type  1   force =    -0.00063578   -0.00031902    0.00000000
     atom   13 type  1   force =    -0.00267728   -0.00228177    0.00000000
     atom   14 type  1   force =    -0.00000000    0.00217777    0.00000000
     atom   15 type  1   force =    -0.00332586   -0.00116039    0.00000000
     atom   16 type  1   force =     0.00075695    0.00040954    0.00000000
     atom   17 type  1   force =    -0.00065214    0.00341237    0.00000000
     atom   18 type  1   force =     0.00000000   -0.00084779    0.00000000
     atom   19 type  1   force =     0.00040204    0.00021091    0.00000000
     atom   20 type  1   force =    -0.00060110    0.00060915    0.00000000
     atom   21 type  1   force =     0.00267728   -0.00228177    0.00000000
     atom   22 type  1   force =     0.00018033   -0.00079354    0.00000000
     atom   23 type  1   force =     0.00000000   -0.00000423    0.00000000
     atom   24 type  1   force =    -0.00075695    0.00040954    0.00000000
     atom   25 type  1   force =     0.00065214    0.00341237    0.00000000
     atom   26 type  1   force =    -0.00194039   -0.00110353    0.00000000
     atom   27 type  1   force =    -0.00000000    0.01481979    0.00000000
     atom   28 type  1   force =     0.00060110    0.00060915    0.00000000
     atom   29 type  1   force =     0.01284421   -0.00737851    0.00000000
     atom   30 type  1   force =     0.00332586   -0.00116039    0.00000000
     atom   31 type  1   force =     0.00077275    0.00019777    0.00000000

     Total force =     0.027543     Total SCF correction =     0.000351


     Computing stress (Cartesian axis) and pressure


     negative rho (up, down):  3.826E-05 0.000E+00
          total   stress  (Ry/bohr**3)                   (kbar)     P=   -0.60
  -0.00000612  -0.00000000   0.00000000         -0.90     -0.00      0.00
   0.00000000  -0.00000607   0.00000000          0.00     -0.89      0.00
   0.00000000   0.00000000   0.00000002          0.00      0.00      0.00


     number of scf cycles    =   3
     number of bfgs steps    =   2

     enthalpy old            =    -140.9371174512 Ry
     enthalpy new            =    -140.9384853533 Ry

     CASE: enthalpy_new < enthalpy_old

     new trust radius        =       0.0341205417 bohr
     new conv_thr            =       0.0000010000 Ry

     new unit-cell volume =  37077.92408 a.u.^3 (  5494.38141 Ang^3 )
     density =      0.28090 g/cm^3

CELL_PARAMETERS (alat= 33.68096681)
   0.999290679   0.000000000   0.000000000
  -0.499645339   0.865417376   0.000000000
   0.000000000   0.000000000   1.122132950

ATOMIC_POSITIONS (angstrom)
Al      -0.001506373   2.569811208   0.000000000
Al       2.226346425   1.288318263   0.000000000
Al      -2.228495327   6.428133792   0.000000000
Al       0.002465532   5.140288568   0.000000000
Al      -4.485630724  10.264126359   0.000000000
Al      -2.222169407   8.993419629   0.000000000
Al      -6.678943632  14.136597180   0.000000000
Al      -4.454302067  12.859442125   0.000000000
Al       4.454165390   2.569829391   0.000000000
Al       6.684096208   1.282522461   0.000000000
Al       2.226345254   6.428740946   0.000000000
Al       4.450258808   5.140306751   0.000000000
Al      -0.008488233  10.274552516   0.000000000
Al       2.226377916   9.003424736   0.000000000
Al      -2.237951465  14.136230272   0.000000000
Al       0.003836985  12.855998779   0.000000000
Al       8.902142239   2.582337771   0.000000000
Al      11.131666801   1.281187201   0.000000000
Al       6.681185835   6.428170158   0.000000000
Al       8.899563097   5.140273985   0.000000000
Al       4.461210231  10.274570699   0.000000000
Al       6.674925238   8.993455995   0.000000000
Al       2.226376744  14.139254720   0.000000000
Al       4.448950337  12.856016962   0.000000000
Al      13.361157530   2.582355954   0.000000000
Al      15.579237395   1.282558828   0.000000000
Al      11.131665630   6.465095020   0.000000000
Al      13.363801996   5.140292168   0.000000000
Al       8.938352722  10.264180909   0.000000000
Al       6.690704953  14.136266638   0.000000000
Al       8.907089389  12.859496674   0.000000000



     Writing output data file 30al_planar_2x2_vcr.save/
     NEW-OLD atomic charge density approx. for the potential

     negative rho (up, down):  3.830E-05 0.000E+00
     extrapolated charge   92.93687, renormalised to   93.00000

     total cpu time spent up to now is     1077.8 secs

     Self-consistent Calculation

     iteration #  1     ecut=    80.00 Ry     beta= 0.40
     Davidson diagonalization with overlap
     ethr =  1.00E-06,  avg # of iterations =  5.0

     negative rho (up, down):  3.841E-05 0.000E+00

     total cpu time spent up to now is     1112.1 secs

     total energy              =    -140.94024571 Ry
     Harris-Foulkes estimate   =    -141.25299204 Ry
     estimated scf accuracy    <       0.00018916 Ry

     iteration #  2     ecut=    80.00 Ry     beta= 0.40
     Davidson diagonalization with overlap
     ethr =  2.03E-07,  avg # of iterations =  6.0

     negative rho (up, down):  3.838E-05 0.000E+00

     total cpu time spent up to now is     1144.8 secs

     total energy              =    -140.94023212 Ry
     Harris-Foulkes estimate   =    -140.94049345 Ry
     estimated scf accuracy    <       0.00197783 Ry

     iteration #  3     ecut=    80.00 Ry     beta= 0.40
     Davidson diagonalization with overlap
     ethr =  2.03E-07,  avg # of iterations =  4.0

     negative rho (up, down):  3.835E-05 0.000E+00

     total cpu time spent up to now is     1169.5 secs

     total energy              =    -140.94035343 Ry
     Harris-Foulkes estimate   =    -140.94036684 Ry
     estimated scf accuracy    <       0.00006054 Ry

     iteration #  4     ecut=    80.00 Ry     beta= 0.40
     Davidson diagonalization with overlap
     ethr =  6.51E-08,  avg # of iterations =  3.0

     negative rho (up, down):  3.829E-05 0.000E+00

     total cpu time spent up to now is     1192.4 secs

     total energy              =    -140.94035368 Ry
     Harris-Foulkes estimate   =    -140.94036021 Ry
     estimated scf accuracy    <       0.00002532 Ry

     iteration #  5     ecut=    80.00 Ry     beta= 0.40
     Davidson diagonalization with overlap
     ethr =  2.72E-08,  avg # of iterations =  4.0

     negative rho (up, down):  3.823E-05 0.000E+00

     total cpu time spent up to now is     1216.0 secs

     total energy              =    -140.94035103 Ry
     Harris-Foulkes estimate   =    -140.94036469 Ry
     estimated scf accuracy    <       0.00009127 Ry

     iteration #  6     ecut=    80.00 Ry     beta= 0.40
     Davidson diagonalization with overlap
     ethr =  2.72E-08,  avg # of iterations =  4.0

     negative rho (up, down):  3.821E-05 0.000E+00

     total cpu time spent up to now is     1240.4 secs

     total energy              =    -140.94035798 Ry
     Harris-Foulkes estimate   =    -140.94035893 Ry
     estimated scf accuracy    <       0.00000625 Ry

     iteration #  7     ecut=    80.00 Ry     beta= 0.40
     Davidson diagonalization with overlap
     ethr =  6.72E-09,  avg # of iterations =  3.0

     negative rho (up, down):  3.820E-05 0.000E+00

     total cpu time spent up to now is     1263.5 secs

     total energy              =    -140.94035858 Ry
     Harris-Foulkes estimate   =    -140.94035871 Ry
     estimated scf accuracy    <       0.00000108 Ry

     iteration #  8     ecut=    80.00 Ry     beta= 0.40
     Davidson diagonalization with overlap
     ethr =  1.16E-09,  avg # of iterations =  4.0

     negative rho (up, down):  3.820E-05 0.000E+00

     total cpu time spent up to now is     1290.2 secs

     total energy              =    -140.94035844 Ry
     Harris-Foulkes estimate   =    -140.94035878 Ry
     estimated scf accuracy    <       0.00000212 Ry

     iteration #  9     ecut=    80.00 Ry     beta= 0.40
     Davidson diagonalization with overlap
     ethr =  1.16E-09,  avg # of iterations =  3.0

     negative rho (up, down):  3.820E-05 0.000E+00

     total cpu time spent up to now is     1313.3 secs

     End of self-consistent calculation

          k = 0.0000 0.0000 0.0000 (448403 PWs)   bands (ev):

    -9.9551  -9.4499  -9.4387  -9.4385  -9.4210  -9.4209  -9.1383  -8.4025
    -8.4023  -8.3922  -8.3742  -8.3742  -8.3099  -8.2449  -8.2449  -7.5818
    -6.9325  -6.9324  -6.8228  -6.4780  -6.4779  -6.4692  -6.3782  -6.3780
    -5.4886  -4.8291  -4.8274  -4.8273  -4.7381  -4.7379  -4.4720  -4.4642
    -4.4443  -4.4443  -4.1351  -4.1348  -3.9786  -3.4712  -3.4670  -3.4667
    -3.4580  -3.4577  -3.3936  -3.2687  -3.2684  -3.2556  -3.2178  -2.9601
    -2.9571  -2.9571  -2.9440  -2.5081  -2.5079  -2.4403  -2.4359  -2.4353

     the Fermi energy is    -3.0901 ev

!    total energy              =    -140.94035779 Ry
     Harris-Foulkes estimate   =    -140.94035848 Ry
     estimated scf accuracy    <       0.00000078 Ry

     The total energy is the sum of the following terms:

     one-electron contribution =    -502.47019435 Ry
     hartree contribution      =     259.97850237 Ry
     xc contribution           =     -61.32817330 Ry
     ewald contribution        =     162.95881402 Ry
     smearing contrib. (-TS)   =      -0.07930652 Ry

     convergence has been achieved in   9 iterations

     negative rho (up, down):  3.820E-05 0.000E+00

     Forces acting on atoms (cartesian axes, Ry/au):

     atom    1 type  1   force =    -0.00123472   -0.00071122    0.00000000
     atom    2 type  1   force =    -0.00000000    0.00035369    0.00000000
     atom    3 type  1   force =     0.00009107   -0.00005430    0.00000000
     atom    4 type  1   force =     0.00029958   -0.00013061    0.00000000
     atom    5 type  1   force =    -0.01279611   -0.00734993    0.00000000
     atom    6 type  1   force =    -0.00222497    0.00025694    0.00000000
     atom    7 type  1   force =    -0.00000000    0.00006612    0.00000000
     atom    8 type  1   force =    -0.00086910   -0.00209497    0.00000000
     atom    9 type  1   force =     0.00123472   -0.00071122    0.00000000
     atom   10 type  1   force =     0.00189463   -0.00107215    0.00000000
     atom   11 type  1   force =    -0.00000000    0.00140300    0.00000000
     atom   12 type  1   force =    -0.00029958   -0.00013061    0.00000000
     atom   13 type  1   force =    -0.00187775   -0.00109451    0.00000000
     atom   14 type  1   force =    -0.00000000    0.00215422    0.00000000
     atom   15 type  1   force =    -0.00191776   -0.00108097    0.00000000
     atom   16 type  1   force =    -0.00002882   -0.00003975    0.00000000
     atom   17 type  1   force =    -0.00002339    0.00216208    0.00000000
     atom   18 type  1   force =    -0.00000000    0.00004559    0.00000000
     atom   19 type  1   force =    -0.00009107   -0.00005430    0.00000000
     atom   20 type  1   force =     0.00135738    0.00181375    0.00000000
     atom   21 type  1   force =     0.00187775   -0.00109451    0.00000000
     atom   22 type  1   force =     0.00222497    0.00025694    0.00000000
     atom   23 type  1   force =    -0.00000000    0.00001083    0.00000000
     atom   24 type  1   force =     0.00002882   -0.00003975    0.00000000
     atom   25 type  1   force =     0.00002339    0.00216208    0.00000000
     atom   26 type  1   force =    -0.00189463   -0.00107215    0.00000000
     atom   27 type  1   force =    -0.00000000    0.01475786    0.00000000
     atom   28 type  1   force =    -0.00135738    0.00181375    0.00000000
     atom   29 type  1   force =     0.01279611   -0.00734993    0.00000000
     atom   30 type  1   force =     0.00191776   -0.00108097    0.00000000
     atom   31 type  1   force =     0.00086910   -0.00209497    0.00000000

     Total force =     0.027072     Total SCF correction =     0.000706


     Computing stress (Cartesian axis) and pressure


     negative rho (up, down):  3.820E-05 0.000E+00
          total   stress  (Ry/bohr**3)                   (kbar)     P=   -0.62
  -0.00000637  -0.00000000  -0.00000000         -0.94     -0.00     -0.00
  -0.00000000  -0.00000632   0.00000000         -0.00     -0.93      0.00
   0.00000000  -0.00000000   0.00000003          0.00     -0.00      0.00


     number of scf cycles    =   4
     number of bfgs steps    =   3

     enthalpy old            =    -140.9384853533 Ry
     enthalpy new            =    -140.9403577896 Ry

     CASE: enthalpy_new < enthalpy_old

     new trust radius        =       0.0511635230 bohr
     new conv_thr            =       0.0000010000 Ry

     new unit-cell volume =  37039.68410 a.u.^3 (  5488.71483 Ang^3 )
     density =      0.28119 g/cm^3

CELL_PARAMETERS (alat= 33.68096681)
   0.998772667  -0.000000000   0.000000000
  -0.499386333   0.864973221   0.000000000
   0.000000000   0.000000000   1.122132950

ATOMIC_POSITIONS (angstrom)
Al      -0.002933619   2.567620644   0.000000000
Al       2.225192333   1.289311541   0.000000000
Al      -2.228377094   6.425402145   0.000000000
Al       0.003845451   5.136954859   0.000000000
Al      -4.506749099  10.245391627   0.000000000
Al      -2.220192017   8.986824821   0.000000000
Al      -6.675481405  14.128048653   0.000000000
Al      -4.453311807  12.854473189   0.000000000
Al       4.453284469   2.567638818   0.000000000
Al       6.684206063   1.279838192   0.000000000
Al       2.225191162   6.427097123   0.000000000
Al       4.446570689   5.136973033   0.000000000
Al      -0.013738928  10.264413251   0.000000000
Al       2.225223807   9.002826731   0.000000000
Al      -2.243651754  14.126884012   0.000000000
Al       0.005699367  12.850445496   0.000000000
Al       8.895920256   2.587930211   0.000000000
Al      11.125896375   1.278438731   0.000000000
Al       6.678759419   6.425438493   0.000000000
Al       8.892824579   5.137969696   0.000000000
Al       4.464152727  10.264431425   0.000000000
Al       6.670639632   8.986861168   0.000000000
Al       2.225222637  14.131992394   0.000000000
Al       4.444779722  12.850463670   0.000000000
Al      13.355838678   2.587948385   0.000000000
Al      15.567586687   1.279874539   0.000000000
Al      11.125895204   6.488837630   0.000000000
Al      13.358999645   5.137987870   0.000000000
Al       8.957162899  10.245446149   0.000000000
Al       6.694097028  14.126920360   0.000000000
Al       8.903790896  12.854527710   0.000000000



     Writing output data file 30al_planar_2x2_vcr.save/
     NEW-OLD atomic charge density approx. for the potential

     negative rho (up, down):  3.828E-05 0.000E+00
     extrapolated charge   92.90406, renormalised to   93.00000

     total cpu time spent up to now is     1388.7 secs

     Self-consistent Calculation

     iteration #  1     ecut=    80.00 Ry     beta= 0.40
     Davidson diagonalization with overlap
     ethr =  1.00E-06,  avg # of iterations =  6.0

     negative rho (up, down):  3.845E-05 0.000E+00

     total cpu time spent up to now is     1424.5 secs

     total energy              =    -140.94275602 Ry
     Harris-Foulkes estimate   =    -141.41834101 Ry
     estimated scf accuracy    <       0.00036466 Ry

     iteration #  2     ecut=    80.00 Ry     beta= 0.40
     Davidson diagonalization with overlap
     ethr =  3.92E-07,  avg # of iterations =  5.0

     negative rho (up, down):  3.840E-05 0.000E+00

     total cpu time spent up to now is     1455.2 secs

     total energy              =    -140.94275962 Ry
     Harris-Foulkes estimate   =    -140.94321872 Ry
     estimated scf accuracy    <       0.00335528 Ry

     iteration #  3     ecut=    80.00 Ry     beta= 0.40
     Davidson diagonalization with overlap
     ethr =  3.92E-07,  avg # of iterations =  6.0

     negative rho (up, down):  3.832E-05 0.000E+00

     total cpu time spent up to now is     1480.8 secs

     total energy              =    -140.94296918 Ry
     Harris-Foulkes estimate   =    -140.94299335 Ry
     estimated scf accuracy    <       0.00011128 Ry

     iteration #  4     ecut=    80.00 Ry     beta= 0.40
     Davidson diagonalization with overlap
     ethr =  1.20E-07,  avg # of iterations =  2.0

     negative rho (up, down):  3.826E-05 0.000E+00

     total cpu time spent up to now is     1501.8 secs

     total energy              =    -140.94296794 Ry
     Harris-Foulkes estimate   =    -140.94298043 Ry
     estimated scf accuracy    <       0.00005543 Ry

     iteration #  5     ecut=    80.00 Ry     beta= 0.40
     Davidson diagonalization with overlap
     ethr =  5.96E-08,  avg # of iterations =  5.0

     negative rho (up, down):  3.818E-05 0.000E+00

     total cpu time spent up to now is     1524.7 secs

     total energy              =    -140.94296016 Ry
     Harris-Foulkes estimate   =    -140.94298956 Ry
     estimated scf accuracy    <       0.00020037 Ry

     iteration #  6     ecut=    80.00 Ry     beta= 0.40
     Davidson diagonalization with overlap
     ethr =  5.96E-08,  avg # of iterations =  4.0

     negative rho (up, down):  3.814E-05 0.000E+00

     total cpu time spent up to now is     1547.7 secs

     total energy              =    -140.94297530 Ry
     Harris-Foulkes estimate   =    -140.94297698 Ry
     estimated scf accuracy    <       0.00001113 Ry

     iteration #  7     ecut=    80.00 Ry     beta= 0.40
     Davidson diagonalization with overlap
     ethr =  1.20E-08,  avg # of iterations =  4.0

     negative rho (up, down):  3.814E-05 0.000E+00

     total cpu time spent up to now is     1571.0 secs

     total energy              =    -140.94297658 Ry
     Harris-Foulkes estimate   =    -140.94297720 Ry
     estimated scf accuracy    <       0.00000415 Ry

     iteration #  8     ecut=    80.00 Ry     beta= 0.40
     Davidson diagonalization with overlap
     ethr =  4.46E-09,  avg # of iterations =  4.0

     negative rho (up, down):  3.813E-05 0.000E+00

     total cpu time spent up to now is     1596.1 secs

     total energy              =    -140.94297685 Ry
     Harris-Foulkes estimate   =    -140.94297728 Ry
     estimated scf accuracy    <       0.00000273 Ry

     iteration #  9     ecut=    80.00 Ry     beta= 0.40
     Davidson diagonalization with overlap
     ethr =  2.94E-09,  avg # of iterations =  3.0

     negative rho (up, down):  3.813E-05 0.000E+00

     total cpu time spent up to now is     1616.9 secs

     End of self-consistent calculation

          k = 0.0000 0.0000 0.0000 (448403 PWs)   bands (ev):

    -9.9569  -9.4515  -9.4437  -9.4435  -9.4167  -9.4163  -9.1345  -8.4020
    -8.4015  -8.3983  -8.3677  -8.3676  -8.3133  -8.2353  -8.2351  -7.5798
    -6.9331  -6.9330  -6.8233  -6.4778  -6.4774  -6.4586  -6.3819  -6.3817
    -5.5051  -4.8243  -4.8180  -4.8179  -4.7379  -4.7376  -4.4687  -4.4617
    -4.4449  -4.4449  -4.1434  -4.1432  -3.9793  -3.4716  -3.4687  -3.4685
    -3.4550  -3.4547  -3.3877  -3.2898  -3.2648  -3.2644  -3.2157  -2.9603
    -2.9514  -2.9513  -2.9354  -2.5011  -2.5008  -2.4444  -2.4291  -2.4279

     the Fermi energy is    -3.0894 ev

!    total energy              =    -140.94297659 Ry
     Harris-Foulkes estimate   =    -140.94297715 Ry
     estimated scf accuracy    <       0.00000066 Ry

     The total energy is the sum of the following terms:

     one-electron contribution =    -502.78945079 Ry
     hartree contribution      =     260.13603206 Ry
     xc contribution           =     -61.32355676 Ry
     ewald contribution        =     163.11190842 Ry
     smearing contrib. (-TS)   =      -0.07790953 Ry

     convergence has been achieved in   9 iterations

     negative rho (up, down):  3.813E-05 0.000E+00

     Forces acting on atoms (cartesian axes, Ry/au):

     atom    1 type  1   force =    -0.00163723   -0.00095164    0.00000000
     atom    2 type  1   force =    -0.00000000   -0.00016732    0.00000000
     atom    3 type  1   force =     0.00073375   -0.00041042    0.00000000
     atom    4 type  1   force =    -0.00013753    0.00010907    0.00000000
     atom    5 type  1   force =    -0.01283072   -0.00738180    0.00000000
     atom    6 type  1   force =    -0.00503796    0.00170111    0.00000000
     atom    7 type  1   force =     0.00000000    0.00080717    0.00000000
     atom    8 type  1   force =    -0.00102988   -0.00522503    0.00000000
     atom    9 type  1   force =     0.00163723   -0.00095164    0.00000000
     atom   10 type  1   force =     0.00183074   -0.00105904    0.00000000
     atom   11 type  1   force =     0.00000000    0.00188870    0.00000000
     atom   12 type  1   force =     0.00013753    0.00010907    0.00000000
     atom   13 type  1   force =    -0.00082865    0.00040614    0.00000000
     atom   14 type  1   force =     0.00000000    0.00207286    0.00000000
     atom   15 type  1   force =    -0.00007925   -0.00090573    0.00000000
     atom   16 type  1   force =    -0.00106030   -0.00060871    0.00000000
     atom   17 type  1   force =     0.00074279    0.00051346    0.00000000
     atom   18 type  1   force =     0.00000000    0.00120579    0.00000000
     atom   19 type  1   force =    -0.00073375   -0.00041042    0.00000000
     atom   20 type  1   force =     0.00398029    0.00347033    0.00000000
     atom   21 type  1   force =     0.00082865    0.00040614    0.00000000
     atom   22 type  1   force =     0.00503796    0.00170111    0.00000000
     atom   23 type  1   force =     0.00000000    0.00001848    0.00000000
     atom   24 type  1   force =     0.00106030   -0.00060871    0.00000000
     atom   25 type  1   force =    -0.00074279    0.00051346    0.00000000
     atom   26 type  1   force =    -0.00183074   -0.00105904    0.00000000
     atom   27 type  1   force =     0.00000000    0.01485883    0.00000000
     atom   28 type  1   force =    -0.00398029    0.00347033    0.00000000
     atom   29 type  1   force =     0.01283072   -0.00738180    0.00000000
     atom   30 type  1   force =     0.00007925   -0.00090573    0.00000000
     atom   31 type  1   force =     0.00102988   -0.00522503    0.00000000

     Total force =     0.029388     Total SCF correction =     0.000648


     Computing stress (Cartesian axis) and pressure


     negative rho (up, down):  3.813E-05 0.000E+00
          total   stress  (Ry/bohr**3)                   (kbar)     P=   -0.65
  -0.00000671  -0.00000000  -0.00000000         -0.99     -0.00     -0.00
  -0.00000000  -0.00000667  -0.00000000         -0.00     -0.98     -0.00
   0.00000000   0.00000000   0.00000003          0.00      0.00      0.00


     number of scf cycles    =   5
     number of bfgs steps    =   4

     enthalpy old            =    -140.9403577896 Ry
     enthalpy new            =    -140.9429765890 Ry

     CASE: enthalpy_new < enthalpy_old

     new trust radius        =       0.0767058968 bohr
     new conv_thr            =       0.0000010000 Ry

     new unit-cell volume =  36981.98331 a.u.^3 (  5480.16445 Ang^3 )
     density =      0.28163 g/cm^3

CELL_PARAMETERS (alat= 33.68096681)
   0.997990740  -0.000000000   0.000000000
  -0.498995370   0.864302409   0.000000000
   0.000000000   0.000000000   1.122132950

ATOMIC_POSITIONS (angstrom)
Al      -0.005224121   2.564223401   0.000000000
Al       2.223450256   1.290576644   0.000000000
Al      -2.227919095   6.421121917   0.000000000
Al       0.005729925   5.132027764   0.000000000
Al      -4.538321428  10.217274133   0.000000000
Al      -2.218427998   8.977523257   0.000000000
Al      -6.670255250  14.115459373   0.000000000
Al      -4.451869105  12.845600181   0.000000000
Al       4.452090844   2.564241561   0.000000000
Al       6.684293139   1.275815224   0.000000000
Al       2.223449087   6.424788705   0.000000000
Al       4.441202038   5.132045924   0.000000000
Al      -0.021139587  10.249786040   0.000000000
Al       2.223481706   9.001821793   0.000000000
Al      -2.251388015  14.112899580   0.000000000
Al       0.008057373  12.841814288   0.000000000
Al       8.886851645   2.595576158   0.000000000
Al      11.117186043   1.274797838   0.000000000
Al       6.674817269   6.421158237   0.000000000
Al       8.883804680   5.135183090   0.000000000
Al       4.468069211  10.249804200   0.000000000
Al       6.665391410   8.977559577   0.000000000
Al       2.223480536  14.121026008   0.000000000
Al       4.438937489  12.841832448   0.000000000
Al      13.347486652   2.595594318   0.000000000
Al      15.550078948   1.275851543   0.000000000
Al      11.117184874   6.524364880   0.000000000
Al      13.350598856   5.135201250   0.000000000
Al       8.985251051  10.217328613   0.000000000
Al       6.698349087  14.112935900   0.000000000
Al       8.898863967  12.845654660   0.000000000



     Writing output data file 30al_planar_2x2_vcr.save/
     NEW-OLD atomic charge density approx. for the potential

     negative rho (up, down):  3.827E-05 0.000E+00
     extrapolated charge   92.85502, renormalised to   93.00000

     total cpu time spent up to now is     1689.2 secs

     Self-consistent Calculation

     iteration #  1     ecut=    80.00 Ry     beta= 0.40
     Davidson diagonalization with overlap
     ethr =  1.00E-06,  avg # of iterations =  8.0

     negative rho (up, down):  3.854E-05 0.000E+00

     total cpu time spent up to now is     1727.2 secs

     total energy              =    -140.94615641 Ry
     Harris-Foulkes estimate   =    -141.66577470 Ry
     estimated scf accuracy    <       0.00087846 Ry

     iteration #  2     ecut=    80.00 Ry     beta= 0.40
     Davidson diagonalization with overlap
     ethr =  9.45E-07,  avg # of iterations =  7.0

     negative rho (up, down):  3.844E-05 0.000E+00

     total cpu time spent up to now is     1756.3 secs

     total energy              =    -140.94605261 Ry
     Harris-Foulkes estimate   =    -140.94745034 Ry
     estimated scf accuracy    <       0.01089944 Ry

     iteration #  3     ecut=    80.00 Ry     beta= 0.40
     Davidson diagonalization with overlap
     ethr =  9.45E-07,  avg # of iterations =  4.0

     negative rho (up, down):  3.838E-05 0.000E+00

     total cpu time spent up to now is     1779.0 secs

     total energy              =    -140.94669334 Ry
     Harris-Foulkes estimate   =    -140.94675382 Ry
     estimated scf accuracy    <       0.00026652 Ry

     iteration #  4     ecut=    80.00 Ry     beta= 0.40
     Davidson diagonalization with overlap
     ethr =  2.87E-07,  avg # of iterations =  4.0

     negative rho (up, down):  3.833E-05 0.000E+00

     total cpu time spent up to now is     1798.5 secs

     total energy              =    -140.94668698 Ry
     Harris-Foulkes estimate   =    -140.94672835 Ry
     estimated scf accuracy    <       0.00019017 Ry

     iteration #  5     ecut=    80.00 Ry     beta= 0.40
     Davidson diagonalization with overlap
     ethr =  2.04E-07,  avg # of iterations =  3.0

     negative rho (up, down):  3.818E-05 0.000E+00

     total cpu time spent up to now is     1816.8 secs

     total energy              =    -140.94669159 Ry
     Harris-Foulkes estimate   =    -140.94673137 Ry
     estimated scf accuracy    <       0.00024808 Ry

     iteration #  6     ecut=    80.00 Ry     beta= 0.40
     Davidson diagonalization with overlap
     ethr =  2.04E-07,  avg # of iterations =  1.0

     negative rho (up, down):  3.808E-05 0.000E+00

     total cpu time spent up to now is     1835.0 secs

     total energy              =    -140.94670924 Ry
     Harris-Foulkes estimate   =    -140.94671276 Ry
     estimated scf accuracy    <       0.00002021 Ry

     iteration #  7     ecut=    80.00 Ry     beta= 0.40
     Davidson diagonalization with overlap
     ethr =  2.17E-08,  avg # of iterations =  5.0

     negative rho (up, down):  3.807E-05 0.000E+00

     total cpu time spent up to now is     1859.4 secs

     total energy              =    -140.94671186 Ry
     Harris-Foulkes estimate   =    -140.94671561 Ry
     estimated scf accuracy    <       0.00002822 Ry

     iteration #  8     ecut=    80.00 Ry     beta= 0.40
     Davidson diagonalization with overlap
     ethr =  2.17E-08,  avg # of iterations =  3.0

     negative rho (up, down):  3.806E-05 0.000E+00

     total cpu time spent up to now is     1879.1 secs

     total energy              =    -140.94671250 Ry
     Harris-Foulkes estimate   =    -140.94671341 Ry
     estimated scf accuracy    <       0.00000529 Ry

     iteration #  9     ecut=    80.00 Ry     beta= 0.40
     Davidson diagonalization with overlap
     ethr =  5.69E-09,  avg # of iterations =  3.0

     negative rho (up, down):  3.804E-05 0.000E+00

     total cpu time spent up to now is     1899.3 secs

     total energy              =    -140.94671224 Ry
     Harris-Foulkes estimate   =    -140.94671263 Ry
     estimated scf accuracy    <       0.00000142 Ry

     iteration # 10     ecut=    80.00 Ry     beta= 0.40
     Davidson diagonalization with overlap
     ethr =  1.52E-09,  avg # of iterations = 20.0

     negative rho (up, down):  3.804E-05 0.000E+00

     total cpu time spent up to now is     1929.1 secs

     total energy              =    -140.94665307 Ry
     Harris-Foulkes estimate   =    -140.94665398 Ry
     estimated scf accuracy    <       0.00002830 Ry

     iteration # 11     ecut=    80.00 Ry     beta= 0.40
     Davidson diagonalization with overlap
     ethr =  1.52E-09,  avg # of iterations =  1.0

     negative rho (up, down):  3.804E-05 0.000E+00

     total cpu time spent up to now is     1947.5 secs

     total energy              =    -140.94665238 Ry
     Harris-Foulkes estimate   =    -140.94665293 Ry
     estimated scf accuracy    <       0.00002278 Ry

     iteration # 12     ecut=    80.00 Ry     beta= 0.40
     Davidson diagonalization with overlap
     ethr =  1.52E-09,  avg # of iterations =  1.0

     negative rho (up, down):  3.804E-05 0.000E+00

     total cpu time spent up to now is     1967.3 secs

     total energy              =    -140.94665280 Ry
     Harris-Foulkes estimate   =    -140.94665232 Ry
     estimated scf accuracy    <       0.00002038 Ry

     iteration # 13     ecut=    80.00 Ry     beta= 0.40
     Davidson diagonalization with overlap
     ethr =  1.52E-09,  avg # of iterations =  1.0

     negative rho (up, down):  3.800E-05 0.000E+00

     total cpu time spent up to now is     1985.8 secs

     total energy              =    -140.94664850 Ry
     Harris-Foulkes estimate   =    -140.94665274 Ry
     estimated scf accuracy    <       0.00002252 Ry

     iteration # 14     ecut=    80.00 Ry     beta= 0.40
     Davidson diagonalization with overlap
     ethr =  1.52E-09,  avg # of iterations =  6.0

     negative rho (up, down):  3.801E-05 0.000E+00

     total cpu time spent up to now is     2015.2 secs

     total energy              =    -140.94664920 Ry
     Harris-Foulkes estimate   =    -140.94664922 Ry
     estimated scf accuracy    <       0.00000172 Ry

     iteration # 15     ecut=    80.00 Ry     beta= 0.40
     Davidson diagonalization with overlap
     ethr =  1.52E-09,  avg # of iterations =  1.0

     negative rho (up, down):  3.801E-05 0.000E+00

     total cpu time spent up to now is     2034.2 secs

     total energy              =    -140.94664879 Ry
     Harris-Foulkes estimate   =    -140.94664894 Ry
     estimated scf accuracy    <       0.00000148 Ry

     iteration # 16     ecut=    80.00 Ry     beta= 0.40
     Davidson diagonalization with overlap
     ethr =  1.52E-09,  avg # of iterations =  1.0

     negative rho (up, down):  3.800E-05 0.000E+00

     total cpu time spent up to now is     2053.1 secs

     End of self-consistent calculation

          k = 0.0000 0.0000 0.0000 (448403 PWs)   bands (ev):

    -9.9597  -9.4530  -9.4509  -9.4508  -9.4115  -9.4113  -9.1299  -8.4069
    -8.4027  -8.4015  -8.3597  -8.3584  -8.3187  -8.2193  -8.2192  -7.5780
    -6.9341  -6.9339  -6.8255  -6.4772  -6.4765  -6.4446  -6.3860  -6.3853
    -5.5297  -4.8180  -4.8058  -4.8053  -4.7361  -4.7358  -4.4635  -4.4572
    -4.4464  -4.4464  -4.1564  -4.1561  -3.9803  -3.4726  -3.4722  -3.4710
    -3.4505  -3.4503  -3.3779  -3.3418  -3.2595  -3.2590  -3.2133  -2.9660
    -2.9426  -2.9425  -2.9167  -2.4912  -2.4907  -2.4504  -2.4412  -2.4187

     the Fermi energy is    -3.0885 ev

!    total energy              =    -140.94664851 Ry
     Harris-Foulkes estimate   =    -140.94664872 Ry
     estimated scf accuracy    <       0.00000044 Ry

     The total energy is the sum of the following terms:

     one-electron contribution =    -503.27427676 Ry
     hartree contribution      =     260.37216649 Ry
     xc contribution           =     -61.31676727 Ry
     ewald contribution        =     163.34814774 Ry
     smearing contrib. (-TS)   =      -0.07591871 Ry

     convergence has been achieved in  16 iterations

     negative rho (up, down):  3.800E-05 0.000E+00

     Forces acting on atoms (cartesian axes, Ry/au):

     atom    1 type  1   force =    -0.00192961   -0.00092743    0.00000000
     atom    2 type  1   force =    -0.00000000   -0.00070712    0.00000000
     atom    3 type  1   force =     0.00172587   -0.00096915    0.00000000
     atom    4 type  1   force =    -0.00066337    0.00028848    0.00000000
     atom    5 type  1   force =    -0.01299967   -0.00754374    0.00000000
     atom    6 type  1   force =    -0.00888161    0.00379745    0.00000000
     atom    7 type  1   force =     0.00000000    0.00173465    0.00000000
     atom    8 type  1   force =    -0.00129423   -0.00953874    0.00000000
     atom    9 type  1   force =     0.00192961   -0.00092743    0.00000000
     atom   10 type  1   force =     0.00200454   -0.00122017    0.00000000
     atom   11 type  1   force =     0.00000000    0.00237344    0.00000000
     atom   12 type  1   force =     0.00066337    0.00028848    0.00000000
     atom   13 type  1   force =     0.00059758    0.00233238    0.00000000
     atom   14 type  1   force =     0.00000000    0.00204389    0.00000000
     atom   15 type  1   force =     0.00244174   -0.00054823    0.00000000
     atom   16 type  1   force =    -0.00235009   -0.00127677    0.00000000
     atom   17 type  1   force =     0.00182166   -0.00172433    0.00000000
     atom   18 type  1   force =     0.00000000    0.00272988    0.00000000
     atom   19 type  1   force =    -0.00172587   -0.00096915    0.00000000
     atom   20 type  1   force =     0.00763302    0.00563222    0.00000000
     atom   21 type  1   force =    -0.00059758    0.00233238    0.00000000
     atom   22 type  1   force =     0.00888161    0.00379745    0.00000000
     atom   23 type  1   force =     0.00000000    0.00005923    0.00000000
     atom   24 type  1   force =     0.00235009   -0.00127677    0.00000000
     atom   25 type  1   force =    -0.00182166   -0.00172433    0.00000000
     atom   26 type  1   force =    -0.00200454   -0.00122017    0.00000000
     atom   27 type  1   force =     0.00000000    0.01516207    0.00000000
     atom   28 type  1   force =    -0.00763302    0.00563222    0.00000000
     atom   29 type  1   force =     0.01299967   -0.00754374    0.00000000
     atom   30 type  1   force =    -0.00244174   -0.00054823    0.00000000
     atom   31 type  1   force =     0.00129423   -0.00953874    0.00000000

     Total force =     0.036530     Total SCF correction =     0.000360


     Computing stress (Cartesian axis) and pressure


     negative rho (up, down):  3.800E-05 0.000E+00
          total   stress  (Ry/bohr**3)                   (kbar)     P=   -0.71
  -0.00000714  -0.00000000   0.00000000         -1.05     -0.00      0.00
  -0.00000000  -0.00000723   0.00000000         -0.00     -1.06      0.00
  -0.00000000  -0.00000000  -0.00000001         -0.00     -0.00     -0.00


     number of scf cycles    =   6
     number of bfgs steps    =   5

     enthalpy old            =    -140.9429765890 Ry
     enthalpy new            =    -140.9466485134 Ry

     CASE: enthalpy_new < enthalpy_old

     new trust radius        =       0.1149696137 bohr
     new conv_thr            =       0.0000010000 Ry

     new unit-cell volume =  36895.22470 a.u.^3 (  5467.30815 Ang^3 )
     density =      0.28229 g/cm^3

CELL_PARAMETERS (alat= 33.68096681)
   0.996815797  -0.000000000   0.000000000
  -0.498407899   0.863291141   0.000000000
   0.000000000   0.000000000   1.122132950

ATOMIC_POSITIONS (angstrom)
Al      -0.008648398   2.559236215   0.000000000
Al       2.220832571   1.292331320   0.000000000
Al      -2.226858999   6.414454956   0.000000000
Al       0.008394079   5.124625796   0.000000000
Al      -4.585513126  10.175088104   0.000000000
Al      -2.217087391   8.964295435   0.000000000
Al      -6.662402306  14.096778398   0.000000000
Al      -4.449785520  12.830728223   0.000000000
Al       4.450279791   2.559254354   0.000000000
Al       6.684504989   1.269683282   0.000000000
Al       2.220831403   6.421370586   0.000000000
Al       4.433302475   5.124643934   0.000000000
Al      -0.031701199  10.228420238   0.000000000
Al       2.220863984   9.000223925   0.000000000
Al      -2.262076066  14.092046804   0.000000000
Al       0.011190399  12.828604676   0.000000000
Al       8.873591445   2.606212512   0.000000000
Al      11.104097692   1.269828382   0.000000000
Al       6.668521804   6.414491233   0.000000000
Al       8.871530504   5.131656292   0.000000000
Al       4.473395417  10.228438377   0.000000000
Al       6.658815358   8.964331712   0.000000000
Al       2.220862815  14.104515156   0.000000000
Al       4.430568981  12.828622814   0.000000000
Al      13.334570191   2.606230651   0.000000000
Al      15.523690396   1.269719559   0.000000000
Al      11.104096524   6.577499232   0.000000000
Al      13.336696293   5.131674430   0.000000000
Al       9.027207344  10.175142520   0.000000000
Al       6.703801696  14.092083082   0.000000000
Al       8.891544900  12.830782638   0.000000000



     Writing output data file 30al_planar_2x2_vcr.save/
     NEW-OLD atomic charge density approx. for the potential

     negative rho (up, down):  3.828E-05 0.000E+00
     extrapolated charge   92.78149, renormalised to   93.00000

     total cpu time spent up to now is     2126.4 secs

     Self-consistent Calculation

     iteration #  1     ecut=    80.00 Ry     beta= 0.40
     Davidson diagonalization with overlap
     c_bands:  1 eigenvalues not converged
     ethr =  1.00E-06,  avg # of iterations = 20.0

     negative rho (up, down):  3.920E-05 0.000E+00

     total cpu time spent up to now is     2171.9 secs

     total energy              =    -140.95060242 Ry
     Harris-Foulkes estimate   =    -142.03723782 Ry
     estimated scf accuracy    <       0.00209304 Ry

     iteration #  2     ecut=    80.00 Ry     beta= 0.40
     Davidson diagonalization with overlap
     ethr =  2.25E-06,  avg # of iterations = 15.0

     negative rho (up, down):  3.903E-05 0.000E+00

     total cpu time spent up to now is     2206.6 secs

     total energy              =    -140.95028425 Ry
     Harris-Foulkes estimate   =    -140.95394252 Ry
     estimated scf accuracy    <       0.02833799 Ry

     iteration #  3     ecut=    80.00 Ry     beta= 0.40
     Davidson diagonalization with overlap
     ethr =  2.25E-06,  avg # of iterations =  4.0

     negative rho (up, down):  3.876E-05 0.000E+00

     total cpu time spent up to now is     2231.3 secs

     total energy              =    -140.95190822 Ry
     Harris-Foulkes estimate   =    -140.95203564 Ry
     estimated scf accuracy    <       0.00057838 Ry

     iteration #  4     ecut=    80.00 Ry     beta= 0.40
     Davidson diagonalization with overlap
     ethr =  6.22E-07,  avg # of iterations =  3.0

     negative rho (up, down):  3.850E-05 0.000E+00

     total cpu time spent up to now is     2251.1 secs

     total energy              =    -140.95191068 Ry
     Harris-Foulkes estimate   =    -140.95196566 Ry
     estimated scf accuracy    <       0.00031647 Ry

     iteration #  5     ecut=    80.00 Ry     beta= 0.40
     Davidson diagonalization with overlap
     ethr =  3.40E-07,  avg # of iterations =  4.0

     negative rho (up, down):  3.823E-05 0.000E+00

     total cpu time spent up to now is     2272.0 secs

     total energy              =    -140.95188324 Ry
     Harris-Foulkes estimate   =    -140.95196872 Ry
     estimated scf accuracy    <       0.00046467 Ry

     iteration #  6     ecut=    80.00 Ry     beta= 0.40
     Davidson diagonalization with overlap
     ethr =  3.40E-07,  avg # of iterations =  4.0

     negative rho (up, down):  3.787E-05 0.000E+00

     total cpu time spent up to now is     2291.2 secs

     total energy              =    -140.95192251 Ry
     Harris-Foulkes estimate   =    -140.95194167 Ry
     estimated scf accuracy    <       0.00011427 Ry

     iteration #  7     ecut=    80.00 Ry     beta= 0.40
     Davidson diagonalization with overlap
     ethr =  1.23E-07,  avg # of iterations =  2.0

     negative rho (up, down):  3.783E-05 0.000E+00

     total cpu time spent up to now is     2310.4 secs

     total energy              =    -140.95193415 Ry
     Harris-Foulkes estimate   =    -140.95193554 Ry
     estimated scf accuracy    <       0.00000662 Ry

     iteration #  8     ecut=    80.00 Ry     beta= 0.40
     Davidson diagonalization with overlap
     ethr =  7.12E-09,  avg # of iterations =  6.0

     negative rho (up, down):  3.782E-05 0.000E+00

     total cpu time spent up to now is     2340.1 secs

     total energy              =    -140.95193763 Ry
     Harris-Foulkes estimate   =    -140.95194007 Ry
     estimated scf accuracy    <       0.00002028 Ry

     iteration #  9     ecut=    80.00 Ry     beta= 0.40
     Davidson diagonalization with overlap
     ethr =  7.12E-09,  avg # of iterations =  3.0

     negative rho (up, down):  3.781E-05 0.000E+00

     total cpu time spent up to now is     2360.8 secs

     total energy              =    -140.95193715 Ry
     Harris-Foulkes estimate   =    -140.95193892 Ry
     estimated scf accuracy    <       0.00001101 Ry

     iteration # 10     ecut=    80.00 Ry     beta= 0.40
     Davidson diagonalization with overlap
     ethr =  7.12E-09,  avg # of iterations =  3.0

     negative rho (up, down):  3.781E-05 0.000E+00

     total cpu time spent up to now is     2380.2 secs

     total energy              =    -140.95193751 Ry
     Harris-Foulkes estimate   =    -140.95193788 Ry
     estimated scf accuracy    <       0.00000301 Ry

     iteration # 11     ecut=    80.00 Ry     beta= 0.40
     Davidson diagonalization with overlap
     ethr =  3.24E-09,  avg # of iterations =  4.0

     negative rho (up, down):  3.781E-05 0.000E+00

     total cpu time spent up to now is     2400.8 secs

     total energy              =    -140.95193750 Ry
     Harris-Foulkes estimate   =    -140.95193781 Ry
     estimated scf accuracy    <       0.00000177 Ry

     iteration # 12     ecut=    80.00 Ry     beta= 0.40
     Davidson diagonalization with overlap
     ethr =  1.90E-09,  avg # of iterations =  4.0

     negative rho (up, down):  3.781E-05 0.000E+00

     total cpu time spent up to now is     2421.6 secs

     End of self-consistent calculation

          k = 0.0000 0.0000 0.0000 (448403 PWs)   bands (ev):

    -9.9648  -9.4617  -9.4613  -9.4566  -9.4055  -9.4054  -9.1262  -8.4193
    -8.4040  -8.4031  -8.3512  -8.3509  -8.3262  -8.1937  -8.1935  -7.5795
    -6.9368  -6.9365  -6.8301  -6.4762  -6.4758  -6.4254  -6.3906  -6.3901
    -5.5679  -4.8092  -4.7923  -4.7918  -4.7299  -4.7297  -4.4570  -4.4514
    -4.4492  -4.4491  -4.1763  -4.1757  -3.9825  -3.4778  -3.4775  -3.4722
    -3.4441  -3.4440  -3.4232  -3.3639  -3.2523  -3.2520  -3.2123  -2.9756
    -2.9302  -2.9300  -2.8859  -2.4782  -2.4774  -2.4583  -2.4396  -2.4389

     the Fermi energy is    -3.0876 ev

!    total energy              =    -140.95193748 Ry
     Harris-Foulkes estimate   =    -140.95193777 Ry
     estimated scf accuracy    <       0.00000030 Ry

     The total energy is the sum of the following terms:

     one-electron contribution =    -504.03130675 Ry
     hartree contribution      =     260.74439166 Ry
     xc contribution           =     -61.30916790 Ry
     ewald contribution        =     163.71661549 Ry
     smearing contrib. (-TS)   =      -0.07246998 Ry

     convergence has been achieved in  12 iterations

     negative rho (up, down):  3.781E-05 0.000E+00

     Forces acting on atoms (cartesian axes, Ry/au):

     atom    1 type  1   force =    -0.00266717   -0.00133366    0.00000000
     atom    2 type  1   force =    -0.00000000   -0.00199950    0.00000000
     atom    3 type  1   force =     0.00286394   -0.00154824    0.00000000
     atom    4 type  1   force =    -0.00147727    0.00068975    0.00000000
     atom    5 type  1   force =    -0.01333772   -0.00780839    0.00000000
     atom    6 type  1   force =    -0.01421514    0.00613819    0.00000000
     atom    7 type  1   force =     0.00000000    0.00357239    0.00000000
[...]
Al       6.876204334   5.423202812   0.000000000
Al       3.322146116   8.338401763   0.000000000
Al       5.926471345   8.586615090   0.000000000
Al       1.899525035  12.792710621   0.000000000
Al       4.464465678  10.915854156   0.000000000
Al      11.946015337   2.925836053   0.000000000
Al      11.950277779   0.314737446   0.000000000
Al       9.497439099   4.757784353   0.000000000
Al      12.118702730   5.423218539   0.000000000
Al       8.272366329   7.486160870   0.000000000
Al       6.758162071  12.343531894   0.000000000
Al       8.151941378  10.122142227   0.000000000
End final coordinates



     Writing output data file 30al_planar_2x2_vcr.save/

     A final scf calculation at the relaxed structure.
     The G-vectors are recalculated for the final unit cell
     Results may differ from those at the preceding step.
 
     Parallelization info
     --------------------
     sticks:   dense  smooth     PW     G-vecs:    dense   smooth      PW
     Min        2304    2304    576               330600   330600   41308
     Max        2306    2306    577               330601   330601   41311
     Sum       18439   18439   4615              2644805  2644805  330477
 


     bravais-lattice index     =            4
     lattice parameter (alat)  =      33.6810  a.u.
     unit-cell volume          =   27359.9847 (a.u.)^3
     number of atoms/cell      =           31
     number of atomic types    =            1
     number of electrons       =        93.00
     number of Kohn-Sham states=           56
     kinetic-energy cutoff     =      80.0000  Ry
     charge density cutoff     =     320.0000  Ry
     convergence threshold     =      1.0E-08
     mixing beta               =       0.4000
     number of iterations used =            8  plain     mixing
     Exchange-correlation      = PBE ( 1  4  3  4 0 0)

     celldm(1)=  33.680967  celldm(2)=   0.000000  celldm(3)=   1.122133
     celldm(4)=   0.000000  celldm(5)=   0.000000  celldm(6)=   0.000000

     crystal axes: (cart. coord. in units of alat)
               a(1) = (   0.852586  -0.000000   0.000000 )  
               a(2) = (  -0.426293   0.748479   0.000000 )  
               a(3) = (   0.000000   0.000000   1.122133 )  

     reciprocal axes: (cart. coord. in units 2 pi/alat)
               b(1) = (  1.172902  0.668021  0.000000 )  
               b(2) = (  0.000000  1.336043  0.000000 )  
               b(3) = (  0.000000  0.000000  0.891160 )  


     PseudoPot. # 1 for Al read from file:
     ./Al.upf
     MD5 check sum: 4974d48a734c9d7d1eb6780a1419d19d
     Pseudo is Norm-conserving + core correction, Zval =  3.0
     Generated using ONCVPSP code by D. R. Hamann
     Using radial grid of 1876 points,  6 beta functions with: 
                l(1) =   0
                l(2) =   0
                l(3) =   1
                l(4) =   1
                l(5) =   2
                l(6) =   2

     atomic species   valence    mass     pseudopotential
        Al             3.00    29.98200     Al( 1.00)

      4 Sym. Ops. (no inversion) found ( 2 have fractional translation)



   Cartesian axes

     site n.     atom                  positions (alat units)
         1           Al  tau(   1) = (  -0.0516143   0.0906954   0.0000000  )
         2           Al  tau(   2) = (   0.1065745   0.0853583   0.0000000  )
         3           Al  tau(   3) = (  -0.0382407   0.3414776   0.0000000  )
         4           Al  tau(   4) = (   0.0305597   0.2107076   0.0000000  )
         5           Al  tau(   5) = (  -0.2509843   0.4200207   0.0000000  )
         6           Al  tau(   6) = (  -0.1193624   0.4817644   0.0000000  )
         7           Al  tau(   7) = (  -0.3197190   0.6914608   0.0000000  )
         8           Al  tau(   8) = (  -0.2442245   0.5679168   0.0000000  )
         9           Al  tau(   9) = (   0.2647617   0.0906963   0.0000000  )
        10           Al  tau(  10) = (   0.3952490   0.0176571   0.0000000  )
        11           Al  tau(  11) = (   0.1065745   0.3399270   0.0000000  )
        12           Al  tau(  12) = (   0.1825909   0.2107085   0.0000000  )
        13           Al  tau(  13) = (   0.0267560   0.4678389   0.0000000  )
        14           Al  tau(  14) = (   0.1065760   0.5815517   0.0000000  )
        15           Al  tau(  15) = (  -0.1660259   0.6925524   0.0000000  )
        16           Al  tau(  16) = (  -0.0373326   0.6124511   0.0000000  )
        17           Al  tau(  17) = (   0.3954866   0.1641580   0.0000000  )
        18           Al  tau(  18) = (   0.5328695   0.1131373   0.0000000  )
        19           Al  tau(  19) = (   0.2513897   0.3414793   0.0000000  )
        20           Al  tau(  20) = (   0.3858008   0.3042777   0.0000000  )
        21           Al  tau(  21) = (   0.1863945   0.4678398   0.0000000  )
        22           Al  tau(  22) = (   0.3325144   0.4817662   0.0000000  )
        23           Al  tau(  23) = (   0.1065760   0.7177561   0.0000000  )
        24           Al  tau(  24) = (   0.2504862   0.6124520   0.0000000  )
        25           Al  tau(  25) = (   0.6702509   0.1641589   0.0000000  )
        26           Al  tau(  26) = (   0.6704900   0.0176589   0.0000000  )
        27           Al  tau(  27) = (   0.5328695   0.2669433   0.0000000  )
        28           Al  tau(  28) = (   0.6799398   0.3042786   0.0000000  )
        29           Al  tau(  29) = (   0.4641347   0.4200234   0.0000000  )
        30           Al  tau(  30) = (   0.3791778   0.6925542   0.0000000  )
        31           Al  tau(  31) = (   0.4573781   0.5679195   0.0000000  )

     number of k points=     1  Methfessel-Paxton smearing, width (Ry)=  0.0500
                       cart. coord. in units 2pi/alat
        k(    1) = (   0.0000000   0.0000000   0.0000000), wk =   2.0000000

     Dense  grid:  2644805 G-vectors     FFT dimensions: ( 180, 180, 216)

     Estimated max dynamical RAM per process >     888.75 MB

     Estimated total dynamical RAM >       6.94 GB

     Initial potential from superposition of free atoms

     starting charge   92.92414, renormalised to   93.00000

     negative rho (up, down):  7.322E-05 0.000E+00
     Starting wfcs are  124 randomized atomic wfcs

     total cpu time spent up to now is    66137.4 secs

     Self-consistent Calculation

     iteration #  1     ecut=    80.00 Ry     beta= 0.40
     Davidson diagonalization with overlap
     c_bands:  1 eigenvalues not converged
     ethr =  1.00E-06,  avg # of iterations = 20.0

     negative rho (up, down):  1.270E-05 0.000E+00

     total cpu time spent up to now is    66201.9 secs

     total energy              =    -141.89444213 Ry
     Harris-Foulkes estimate   =    -142.27103514 Ry
     estimated scf accuracy    <       1.00691759 Ry

     iteration #  2     ecut=    80.00 Ry     beta= 0.40
     Davidson diagonalization with overlap
     ethr =  1.08E-03,  avg # of iterations =  3.0

     negative rho (up, down):  9.502E-06 0.000E+00

     total cpu time spent up to now is    66219.0 secs

     total energy              =    -141.83246307 Ry
     Harris-Foulkes estimate   =    -142.06338503 Ry
     estimated scf accuracy    <       0.61499321 Ry

     iteration #  3     ecut=    80.00 Ry     beta= 0.40
     Davidson diagonalization with overlap
     ethr =  6.61E-04,  avg # of iterations =  5.0

     negative rho (up, down):  8.468E-06 0.000E+00

     total cpu time spent up to now is    66239.7 secs

     total energy              =    -141.88099931 Ry
     Harris-Foulkes estimate   =    -142.06949542 Ry
     estimated scf accuracy    <       0.88617047 Ry

     iteration #  4     ecut=    80.00 Ry     beta= 0.40
     Davidson diagonalization with overlap
     ethr =  6.61E-04,  avg # of iterations =  4.0

     negative rho (up, down):  8.390E-06 0.000E+00

     total cpu time spent up to now is    66258.4 secs

     total energy              =    -141.96595958 Ry
     Harris-Foulkes estimate   =    -141.97306860 Ry
     estimated scf accuracy    <       0.02368319 Ry

     iteration #  5     ecut=    80.00 Ry     beta= 0.40
     Davidson diagonalization with overlap
     ethr =  2.55E-05,  avg # of iterations = 12.0

     negative rho (up, down):  8.498E-06 0.000E+00

     total cpu time spent up to now is    66287.3 secs

     total energy              =    -141.97145881 Ry
     Harris-Foulkes estimate   =    -141.97530236 Ry
     estimated scf accuracy    <       0.01574111 Ry

     iteration #  6     ecut=    80.00 Ry     beta= 0.40
     Davidson diagonalization with overlap
     ethr =  1.69E-05,  avg # of iterations =  4.0

     negative rho (up, down):  8.689E-06 0.000E+00

     total cpu time spent up to now is    66307.0 secs

     total energy              =    -141.97229954 Ry
     Harris-Foulkes estimate   =    -141.97456239 Ry
     estimated scf accuracy    <       0.01000186 Ry

     iteration #  7     ecut=    80.00 Ry     beta= 0.40
     Davidson diagonalization with overlap
     ethr =  1.08E-05,  avg # of iterations =  4.0

     negative rho (up, down):  8.795E-06 0.000E+00

     total cpu time spent up to now is    66326.6 secs

     total energy              =    -141.97333830 Ry
     Harris-Foulkes estimate   =    -141.97356935 Ry
     estimated scf accuracy    <       0.00083912 Ry

     iteration #  8     ecut=    80.00 Ry     beta= 0.40
     Davidson diagonalization with overlap
     ethr =  9.02E-07,  avg # of iterations = 10.0

     negative rho (up, down):  8.830E-06 0.000E+00

     total cpu time spent up to now is    66353.4 secs

     total energy              =    -141.97336343 Ry
     Harris-Foulkes estimate   =    -141.97347118 Ry
     estimated scf accuracy    <       0.00059868 Ry

     iteration #  9     ecut=    80.00 Ry     beta= 0.40
     Davidson diagonalization with overlap
     ethr =  6.44E-07,  avg # of iterations =  3.0

     negative rho (up, down):  8.846E-06 0.000E+00

     total cpu time spent up to now is    66371.6 secs

     total energy              =    -141.97337705 Ry
     Harris-Foulkes estimate   =    -141.97341692 Ry
     estimated scf accuracy    <       0.00018282 Ry

     iteration # 10     ecut=    80.00 Ry     beta= 0.40
     Davidson diagonalization with overlap
     ethr =  1.97E-07,  avg # of iterations =  4.0

     negative rho (up, down):  8.865E-06 0.000E+00

     total cpu time spent up to now is    66389.8 secs

     total energy              =    -141.97339907 Ry
     Harris-Foulkes estimate   =    -141.97340116 Ry
     estimated scf accuracy    <       0.00000893 Ry

     iteration # 11     ecut=    80.00 Ry     beta= 0.40
     Davidson diagonalization with overlap
     ethr =  9.60E-09,  avg # of iterations =  7.0

     negative rho (up, down):  8.872E-06 0.000E+00

     total cpu time spent up to now is    66417.4 secs

     total energy              =    -141.97340206 Ry
     Harris-Foulkes estimate   =    -141.97340402 Ry
     estimated scf accuracy    <       0.00001047 Ry

     iteration # 12     ecut=    80.00 Ry     beta= 0.40
     Davidson diagonalization with overlap
     ethr =  9.60E-09,  avg # of iterations =  5.0

     negative rho (up, down):  8.883E-06 0.000E+00

     total cpu time spent up to now is    66436.9 secs

     total energy              =    -141.97340200 Ry
     Harris-Foulkes estimate   =    -141.97340321 Ry
     estimated scf accuracy    <       0.00000508 Ry

     iteration # 13     ecut=    80.00 Ry     beta= 0.40
     Davidson diagonalization with overlap
     ethr =  5.46E-09,  avg # of iterations =  4.0

     negative rho (up, down):  8.891E-06 0.000E+00

     total cpu time spent up to now is    66456.6 secs

     total energy              =    -141.97340253 Ry
     Harris-Foulkes estimate   =    -141.97340275 Ry
     estimated scf accuracy    <       0.00000143 Ry

     iteration # 14     ecut=    80.00 Ry     beta= 0.40
     Davidson diagonalization with overlap
     ethr =  1.54E-09,  avg # of iterations =  3.0

     negative rho (up, down):  8.893E-06 0.000E+00

     total cpu time spent up to now is    66474.6 secs

     total energy              =    -141.97340245 Ry
     Harris-Foulkes estimate   =    -141.97340258 Ry
     estimated scf accuracy    <       0.00000050 Ry

     iteration # 15     ecut=    80.00 Ry     beta= 0.40
     Davidson diagonalization with overlap
     ethr =  5.33E-10,  avg # of iterations =  5.0

     negative rho (up, down):  8.894E-06 0.000E+00

     total cpu time spent up to now is    66496.7 secs

     total energy              =    -141.97340250 Ry
     Harris-Foulkes estimate   =    -141.97340253 Ry
     estimated scf accuracy    <       0.00000010 Ry

     iteration # 16     ecut=    80.00 Ry     beta= 0.40
     Davidson diagonalization with overlap
     ethr =  1.10E-10,  avg # of iterations =  4.0

     negative rho (up, down):  8.894E-06 0.000E+00

     total cpu time spent up to now is    66516.7 secs

     total energy              =    -141.97340249 Ry
     Harris-Foulkes estimate   =    -141.97340249 Ry
     estimated scf accuracy    <       0.00000002 Ry

     iteration # 17     ecut=    80.00 Ry     beta= 0.40
     Davidson diagonalization with overlap
     ethr =  1.89E-11,  avg # of iterations =  4.0

     negative rho (up, down):  8.894E-06 0.000E+00

     total cpu time spent up to now is    66537.6 secs

     End of self-consistent calculation

          k = 0.0000 0.0000 0.0000 (330477 PWs)   bands (ev):

   -11.4587 -10.8344 -10.6798 -10.5837 -10.5365 -10.4470 -10.3902  -9.1877
    -9.0475  -8.9941  -8.8826  -8.8725  -8.6676  -8.2541  -8.1418  -8.1406
    -8.1144  -7.9021  -7.6537  -6.0615  -6.0008  -5.9550  -5.9510  -5.9029
    -5.8267  -5.6763  -5.5429  -5.4644  -5.4248  -5.2845  -5.2166  -4.7784
    -4.4731  -4.3408  -4.1366  -4.1325  -4.0305  -3.9587  -3.9368  -3.8757
    -3.8235  -3.7908  -3.7411  -3.7335  -2.5375  -2.4429  -2.3973  -2.3462
    -2.2950  -2.1898  -2.1816  -2.0756  -1.9453  -1.7869  -1.7061  -1.6151

     the Fermi energy is    -2.4736 ev

!    total energy              =    -141.97340244 Ry
     Harris-Foulkes estimate   =    -141.97340245 Ry
     estimated scf accuracy    <          8.3E-09 Ry

     The total energy is the sum of the following terms:

     one-electron contribution =    -670.66739035 Ry
     hartree contribution      =     344.06122330 Ry
     xc contribution           =     -63.39924274 Ry
     ewald contribution        =     248.08174469 Ry
     smearing contrib. (-TS)   =      -0.04973735 Ry

     convergence has been achieved in  17 iterations

     negative rho (up, down):  8.894E-06 0.000E+00

     Forces acting on atoms (cartesian axes, Ry/au):

     atom    1 type  1   force =     0.00000145    0.00000130    0.00000000
     atom    2 type  1   force =    -0.00000000   -0.00000960    0.00000000
     atom    3 type  1   force =    -0.00000745   -0.00000291    0.00000000
     atom    4 type  1   force =    -0.00000300    0.00000253    0.00000000
     atom    5 type  1   force =    -0.00000587    0.00000299    0.00000000
     atom    6 type  1   force =     0.00000570    0.00000266    0.00000000
     atom    7 type  1   force =     0.00000000    0.00000680    0.00000000
     atom    8 type  1   force =     0.00000147   -0.00000907    0.00000000
     atom    9 type  1   force =    -0.00000145    0.00000130    0.00000000
     atom   10 type  1   force =    -0.00000769   -0.00001039    0.00000000
     atom   11 type  1   force =    -0.00000000   -0.00000031    0.00000000
     atom   12 type  1   force =     0.00000300    0.00000253    0.00000000
     atom   13 type  1   force =    -0.00000140    0.00000716    0.00000000
     atom   14 type  1   force =     0.00000000    0.00000049    0.00000000
     atom   15 type  1   force =     0.00000050   -0.00000511    0.00000000
     atom   16 type  1   force =    -0.00000313    0.00000202    0.00000000
     atom   17 type  1   force =    -0.00000447    0.00001032    0.00000000
     atom   18 type  1   force =     0.00000000    0.00000176    0.00000000
     atom   19 type  1   force =     0.00000745   -0.00000291    0.00000000
     atom   20 type  1   force =     0.00000255    0.00000439    0.00000000
     atom   21 type  1   force =     0.00000140    0.00000716    0.00000000
     atom   22 type  1   force =    -0.00000570    0.00000266    0.00000000
     atom   23 type  1   force =    -0.00000000   -0.00000812    0.00000000
     atom   24 type  1   force =     0.00000313    0.00000202    0.00000000
     atom   25 type  1   force =     0.00000447    0.00001032    0.00000000
     atom   26 type  1   force =     0.00000769   -0.00001039    0.00000000
     atom   27 type  1   force =    -0.00000000   -0.00000281    0.00000000
     atom   28 type  1   force =    -0.00000255    0.00000439    0.00000000
     atom   29 type  1   force =     0.00000587    0.00000299    0.00000000
     atom   30 type  1   force =    -0.00000050   -0.00000511    0.00000000
     atom   31 type  1   force =    -0.00000147   -0.00000907    0.00000000

     Total force =     0.000039     Total SCF correction =     0.000091
     SCF correction compared to forces is large: reduce conv_thr to get better values


     Computing stress (Cartesian axis) and pressure


     negative rho (up, down):  8.894E-06 0.000E+00
          total   stress  (Ry/bohr**3)                   (kbar)     P=    0.00
   0.00000004   0.00000000   0.00000000          0.01      0.00      0.00
   0.00000000   0.00000003   0.00000000          0.00      0.00      0.00
  -0.00000000  -0.00000000  -0.00000001         -0.00     -0.00     -0.00


     Writing output data file 30al_planar_2x2_vcr.save/
 
     init_run     :     40.82s CPU     47.39s WALL (       2 calls)
     electrons    :  43386.47s CPU  52053.14s WALL (     196 calls)
     update_pot   :   3179.38s CPU   3226.21s WALL (     194 calls)
     forces       :   2733.59s CPU   2832.31s WALL (     196 calls)
     stress       :   8086.00s CPU   8314.86s WALL (     196 calls)

     Called by init_run:
     wfcinit      :     21.55s CPU     27.28s WALL (       2 calls)
     potinit      :      7.43s CPU      7.91s WALL (       2 calls)
     hinit0       :      8.74s CPU      8.97s WALL (       2 calls)

     Called by electrons:
     c_bands      :  36324.10s CPU  43243.42s WALL (    1876 calls)
     sum_band     :   4772.86s CPU   5963.05s WALL (    1876 calls)
     v_of_rho     :   1973.36s CPU   2353.46s WALL (    2026 calls)
     mix_rho      :    409.34s CPU    567.47s WALL (    1876 calls)

     Called by c_bands:
     init_us_2    :    615.54s CPU    618.42s WALL (    3754 calls)
     cegterg      :  31279.95s CPU  38190.83s WALL (    1877 calls)

     Called by sum_band:

     Called by *egterg:
     h_psi        :  27217.67s CPU  33924.28s WALL (   12317 calls)
     g_psi        :     98.49s CPU    100.97s WALL (   10438 calls)
     cdiaghg      :     94.31s CPU     95.34s WALL (   12074 calls)

     Called by h_psi:
     h_psi:pot    :  27149.37s CPU  33741.50s WALL (   12317 calls)
     h_psi:calbec :   3268.60s CPU   3277.82s WALL (   12317 calls)
     vloc_psi     :  20430.81s CPU  27008.58s WALL (   12317 calls)
     add_vuspsi   :   3449.83s CPU   3455.01s WALL (   12317 calls)

     General routines
     calbec       :   3779.14s CPU   3789.21s WALL (   13297 calls)
     fft          :   1870.74s CPU   2173.08s WALL (   25400 calls)
     ffts         :    114.92s CPU    137.12s WALL (    1876 calls)
     fftw         :  21500.60s CPU  29003.56s WALL (  735746 calls)
 
     Parallel routines
     fft_scatt_xy :   3981.38s CPU   5571.98s WALL (  763022 calls)
     fft_scatt_yz :   8842.47s CPU  10345.27s WALL (  763022 calls)
 
     PWSCF        :    15h57m CPU       57h18m WALL

      29h
 
   This run was terminated on:   3:46:33  27Nov2020            

=------------------------------------------------------------------------------=
   JOB DONE.
=------------------------------------------------------------------------------=
