
     Program PWSCF v.6.3MaX starts on 25Nov2020 at 11:59:58 

     This program is part of the open-source Quantum ESPRESSO suite
     for quantum simulation of materials; please cite
         "P. Giannozzi et al., J. Phys.:Condens. Matter 21 395502 (2009);
         "P. Giannozzi et al., J. Phys.:Condens. Matter 29 465901 (2017);
          URL http://www.quantum-espresso.org", 
     in publications or presentations arising from this work. More details at
     http://www.quantum-espresso.org/quote

     Parallel version (MPI), running on     8 processors

     MPI processes distributed on     3 nodes
     R & G space division:  proc/nbgrp/npool/nimage =       8
     Waiting for input...
     Reading input from standard input

     Current dimensions of program PWSCF are:
     Max number of different atomic species (ntypx) = 10
     Max number of k-points (npk) =  40000
     Max angular momentum in pseudopotentials (lmaxx) =  3

     Subspace diagonalization in iterative solution of the eigenvalue problem:
     a serial algorithm will be used

 
     Parallelization info
     --------------------
     sticks:   dense  smooth     PW     G-vecs:    dense   smooth      PW
     Min        1758    1758    438               252392   252392   31546
     Max        1759    1759    439               252397   252397   31551
     Sum       14071   14071   3505              2019149  2019149  252395
 


     bravais-lattice index     =            4
     lattice parameter (alat)  =      25.2607  a.u.
     unit-cell volume          =   20885.8003 (a.u.)^3
     number of atoms/cell      =           17
     number of atomic types    =            1
     number of electrons       =        51.00
     number of Kohn-Sham states=           31
     kinetic-energy cutoff     =      80.0000  Ry
     charge density cutoff     =     320.0000  Ry
     convergence threshold     =      1.0E-06
     mixing beta               =       0.4000
     number of iterations used =            8  plain     mixing
     Exchange-correlation      = PBE ( 1  4  3  4 0 0)
     nstep                     =          300


     celldm(1)=  25.260725  celldm(2)=   0.000000  celldm(3)=   1.496177
     celldm(4)=   0.000000  celldm(5)=   0.000000  celldm(6)=   0.000000

     crystal axes: (cart. coord. in units of alat)
               a(1) = (   1.000000   0.000000   0.000000 )  
               a(2) = (  -0.500000   0.866025   0.000000 )  
               a(3) = (   0.000000   0.000000   1.496177 )  

     reciprocal axes: (cart. coord. in units 2 pi/alat)
               b(1) = (  1.000000  0.577350  0.000000 )  
               b(2) = (  0.000000  1.154701  0.000000 )  
               b(3) = (  0.000000  0.000000  0.668370 )  


     PseudoPot. # 1 for Al read from file:
     ./Al.upf
     MD5 check sum: 4974d48a734c9d7d1eb6780a1419d19d
     Pseudo is Norm-conserving + core correction, Zval =  3.0
     Generated using ONCVPSP code by D. R. Hamann
     Using radial grid of 1876 points,  6 beta functions with: 
                l(1) =   0
                l(2) =   0
                l(3) =   1
                l(4) =   1
                l(5) =   2
                l(6) =   2

     atomic species   valence    mass     pseudopotential
        Al             3.00    29.98200     Al( 1.00)

      4 Sym. Ops. (no inversion) found ( 2 have fractional translation)



   Cartesian axes

     site n.     atom                  positions (alat units)
         1           Al  tau(   1) = (   0.1666687   0.0962261   0.0000000  )
         2           Al  tau(   2) = (   0.3333348   0.1924537   0.0000000  )
         3           Al  tau(   3) = (   0.5000036   0.0962275   0.0000000  )
         4           Al  tau(   4) = (  -0.1666663   0.4811295   0.0000000  )
         5           Al  tau(   5) = (   0.0000024   0.3849033   0.0000000  )
         6           Al  tau(   6) = (   0.1666686   0.4811309   0.0000000  )
         7           Al  tau(   7) = (   0.3333373   0.3849047   0.0000000  )
         8           Al  tau(   8) = (  -0.3333326   0.7698067   0.0000000  )
         9           Al  tau(   9) = (  -0.1666639   0.6735805   0.0000000  )
        10           Al  tau(  10) = (   0.0000023   0.7698081   0.0000000  )
        11           Al  tau(  11) = (   0.1666710   0.6735818   0.0000000  )
        12           Al  tau(  12) = (   0.6666697   0.1924551   0.0000000  )
        13           Al  tau(  13) = (   0.8333384   0.0962289   0.0000000  )
        14           Al  tau(  14) = (   0.5000035   0.4811323   0.0000000  )
        15           Al  tau(  15) = (   0.6666722   0.3849060   0.0000000  )
        16           Al  tau(  16) = (   0.3333372   0.7698094   0.0000000  )
        17           Al  tau(  17) = (   0.5000059   0.6735832   0.0000000  )

     number of k points=     1  Methfessel-Paxton smearing, width (Ry)=  0.0500
                       cart. coord. in units 2pi/alat
        k(    1) = (   0.0000000   0.0000000   0.0000000), wk =   2.0000000

     Dense  grid:  2019149 G-vectors     FFT dimensions: ( 144, 144, 216)

     Estimated max dynamical RAM per process >     437.36 MB

     Estimated total dynamical RAM >       3.42 GB

     Initial potential from superposition of free atoms

     starting charge   50.95840, renormalised to   51.00000

     negative rho (up, down):  5.196E-05 0.000E+00
     Starting wfcs are   68 randomized atomic wfcs

     total cpu time spent up to now is       15.1 secs

     Self-consistent Calculation

     iteration #  1     ecut=    80.00 Ry     beta= 0.40
     Davidson diagonalization with overlap
     ethr =  1.00E-02,  avg # of iterations =  2.0

     total cpu time spent up to now is       22.5 secs

     total energy              =     -77.03479373 Ry
     Harris-Foulkes estimate   =     -77.31747642 Ry
     estimated scf accuracy    <       0.79254972 Ry

     iteration #  2     ecut=    80.00 Ry     beta= 0.40
     Davidson diagonalization with overlap
     ethr =  1.55E-03,  avg # of iterations =  4.0

     negative rho (up, down):  3.346E-07 0.000E+00

     total cpu time spent up to now is       29.1 secs

     total energy              =     -77.00185461 Ry
     Harris-Foulkes estimate   =     -77.25543257 Ry
     estimated scf accuracy    <       0.82659068 Ry

     iteration #  3     ecut=    80.00 Ry     beta= 0.40
     Davidson diagonalization with overlap
     ethr =  1.55E-03,  avg # of iterations =  3.0

     negative rho (up, down):  9.408E-06 0.000E+00

     total cpu time spent up to now is       35.5 secs

     total energy              =     -77.12751744 Ry
     Harris-Foulkes estimate   =     -77.18862433 Ry
     estimated scf accuracy    <       0.28278899 Ry

     iteration #  4     ecut=    80.00 Ry     beta= 0.40
     Davidson diagonalization with overlap
     ethr =  5.54E-04,  avg # of iterations =  2.0

     negative rho (up, down):  1.527E-05 0.000E+00

     total cpu time spent up to now is       41.3 secs

     total energy              =     -77.14889903 Ry
     Harris-Foulkes estimate   =     -77.16563413 Ry
     estimated scf accuracy    <       0.07165958 Ry

     iteration #  5     ecut=    80.00 Ry     beta= 0.40
     Davidson diagonalization with overlap
     ethr =  1.41E-04,  avg # of iterations =  3.0

     negative rho (up, down):  2.424E-05 0.000E+00

     total cpu time spent up to now is       47.5 secs

     total energy              =     -77.15921643 Ry
     Harris-Foulkes estimate   =     -77.16234748 Ry
     estimated scf accuracy    <       0.01735493 Ry

     iteration #  6     ecut=    80.00 Ry     beta= 0.40
     Davidson diagonalization with overlap
     ethr =  3.40E-05,  avg # of iterations =  5.0

     negative rho (up, down):  4.397E-05 0.000E+00

     total cpu time spent up to now is       54.0 secs

     total energy              =     -77.16169041 Ry
     Harris-Foulkes estimate   =     -77.16202494 Ry
     estimated scf accuracy    <       0.00241402 Ry

     iteration #  7     ecut=    80.00 Ry     beta= 0.40
     Davidson diagonalization with overlap
     ethr =  4.73E-06,  avg # of iterations =  3.0

     negative rho (up, down):  4.537E-05 0.000E+00

     total cpu time spent up to now is       60.9 secs

     total energy              =     -77.16203787 Ry
     Harris-Foulkes estimate   =     -77.16216473 Ry
     estimated scf accuracy    <       0.00048977 Ry

     iteration #  8     ecut=    80.00 Ry     beta= 0.40
     Davidson diagonalization with overlap
     ethr =  9.60E-07,  avg # of iterations =  3.0

     negative rho (up, down):  4.590E-05 0.000E+00

     total cpu time spent up to now is       67.8 secs

     total energy              =     -77.16206664 Ry
     Harris-Foulkes estimate   =     -77.16217592 Ry
     estimated scf accuracy    <       0.00069038 Ry

     iteration #  9     ecut=    80.00 Ry     beta= 0.40
     Davidson diagonalization with overlap
     ethr =  9.60E-07,  avg # of iterations =  1.0

     negative rho (up, down):  4.799E-05 0.000E+00

     total cpu time spent up to now is       73.4 secs

     total energy              =     -77.16209752 Ry
     Harris-Foulkes estimate   =     -77.16211920 Ry
     estimated scf accuracy    <       0.00008495 Ry

     iteration # 10     ecut=    80.00 Ry     beta= 0.40
     Davidson diagonalization with overlap
     ethr =  1.67E-07,  avg # of iterations =  5.0

     negative rho (up, down):  4.837E-05 0.000E+00

     total cpu time spent up to now is       81.6 secs

     total energy              =     -77.16211387 Ry
     Harris-Foulkes estimate   =     -77.16212430 Ry
     estimated scf accuracy    <       0.00007397 Ry

     iteration # 11     ecut=    80.00 Ry     beta= 0.40
     Davidson diagonalization with overlap
     ethr =  1.45E-07,  avg # of iterations =  2.0

     negative rho (up, down):  4.857E-05 0.000E+00

     total cpu time spent up to now is       87.4 secs

     total energy              =     -77.16211411 Ry
     Harris-Foulkes estimate   =     -77.16211995 Ry
     estimated scf accuracy    <       0.00002736 Ry

     iteration # 12     ecut=    80.00 Ry     beta= 0.40
     Davidson diagonalization with overlap
     ethr =  5.36E-08,  avg # of iterations =  3.0

     negative rho (up, down):  4.888E-05 0.000E+00

     total cpu time spent up to now is       93.4 secs

     total energy              =     -77.16211676 Ry
     Harris-Foulkes estimate   =     -77.16211765 Ry
     estimated scf accuracy    <       0.00000361 Ry

     iteration # 13     ecut=    80.00 Ry     beta= 0.40
     Davidson diagonalization with overlap
     ethr =  7.08E-09,  avg # of iterations =  7.0

     negative rho (up, down):  4.909E-05 0.000E+00

     total cpu time spent up to now is      102.5 secs

     total energy              =     -77.16211772 Ry
     Harris-Foulkes estimate   =     -77.16211879 Ry
     estimated scf accuracy    <       0.00000699 Ry

     iteration # 14     ecut=    80.00 Ry     beta= 0.40
     Davidson diagonalization with overlap
     ethr =  7.08E-09,  avg # of iterations =  2.0

     negative rho (up, down):  4.915E-05 0.000E+00

     total cpu time spent up to now is      108.1 secs

     End of self-consistent calculation

          k = 0.0000 0.0000 0.0000 (252395 PWs)   bands (ev):

    -9.9966  -9.1544  -9.0982  -9.0980  -9.0600  -9.0597  -8.4090  -7.5384
    -7.4675  -7.4673  -6.7264  -5.8851  -5.8794  -5.8793  -5.6094  -5.6093
    -4.7521  -4.7520  -4.0026  -3.5338  -3.3090  -3.2900  -3.2899  -3.2356
    -3.1476  -3.1136  -3.1133  -3.0991  -3.0989  -2.7514  -2.7511

     the Fermi energy is    -3.1137 ev

!    total energy              =     -77.16211731 Ry
     Harris-Foulkes estimate   =     -77.16211806 Ry
     estimated scf accuracy    <       0.00000089 Ry

     The total energy is the sum of the following terms:

     one-electron contribution =    -269.13871424 Ry
     hartree contribution      =     139.26302886 Ry
     xc contribution           =     -33.51707578 Ry
     ewald contribution        =      86.35186857 Ry
     smearing contrib. (-TS)   =      -0.12122471 Ry

     convergence has been achieved in  14 iterations

     negative rho (up, down):  4.915E-05 0.000E+00

     Forces acting on atoms (cartesian axes, Ry/au):

     atom    1 type  1   force =    -0.01928008    0.01112780    0.00000000
     atom    2 type  1   force =     0.00398492   -0.00308794    0.00000000
     atom    3 type  1   force =     0.00000000    0.00950178    0.00000000
     atom    4 type  1   force =     0.00061618    0.00502919    0.00000000
     atom    5 type  1   force =     0.00000000   -0.02230426    0.00000000
     atom    6 type  1   force =    -0.00061618    0.00502919    0.00000000
     atom    7 type  1   force =     0.00061175    0.00034535    0.00000000
     atom    8 type  1   force =     0.00465357   -0.00193495    0.00000000
     atom    9 type  1   force =    -0.00822597   -0.00473294    0.00000000
     atom   10 type  1   force =     0.00000000   -0.00002344    0.00000000
     atom   11 type  1   force =     0.00822597   -0.00473294    0.00000000
     atom   12 type  1   force =    -0.00398492   -0.00308794    0.00000000
     atom   13 type  1   force =     0.01928008    0.01112780    0.00000000
     atom   14 type  1   force =     0.00000000    0.00000220    0.00000000
     atom   15 type  1   force =    -0.00061175    0.00034535    0.00000000
     atom   16 type  1   force =    -0.00465357   -0.00193495    0.00000000
     atom   17 type  1   force =     0.00000000   -0.00066930    0.00000000

     Total force =     0.043743     Total SCF correction =     0.000668


     Computing stress (Cartesian axis) and pressure


     negative rho (up, down):  4.915E-05 0.000E+00
          total   stress  (Ry/bohr**3)                   (kbar)     P=   -0.80
  -0.00000820   0.00000000   0.00000000         -1.21      0.00      0.00
   0.00000000  -0.00000820   0.00000000          0.00     -1.21      0.00
   0.00000000   0.00000000   0.00000002          0.00      0.00      0.00


     BFGS Geometry Optimization

     number of scf cycles    =   1
     number of bfgs steps    =   0

     enthalpy new            =     -77.1621173092 Ry

     new trust radius        =       0.0223042596 bohr
     new conv_thr            =       0.0000010000 Ry

     new unit-cell volume =  20877.23628 a.u.^3 (  3093.68719 Ang^3 )
     density =      0.27358 g/cm^3

CELL_PARAMETERS (alat= 25.26072511)
   0.999795040   0.000000000   0.000000000
  -0.499897520   0.865847762   0.000000000
   0.000000000   0.000000000   1.496177267

ATOMIC_POSITIONS (angstrom)
Al       2.217269617   1.291916949   0.000000000
Al       4.457015239   2.570444635   0.000000000
Al       6.682377634   1.291074863   0.000000000
Al      -2.227112598   6.432792518   0.000000000
Al       0.000032092   5.132300654   0.000000000
Al       2.227142933   6.432810710   0.000000000
Al       4.455263282   5.144302045   0.000000000
Al      -4.452414552  10.287179570   0.000000000
Al      -2.231758023   8.999668648   0.000000000
Al       0.000030921  10.288209085   0.000000000
Al       2.231853715   8.999686840   0.000000000
Al       8.907706179   2.570462827   0.000000000
Al      11.147485651   1.291953333   0.000000000
Al       6.682376462   6.430169280   0.000000000
Al       8.909523493   5.144320238   0.000000000
Al       4.452476394  10.287215955   0.000000000
Al       6.682409140   9.001854976   0.000000000



     Writing output data file 1al_planar_2x2_vcr.save/
     NEW-OLD atomic charge density approx. for the potential

     negative rho (up, down):  4.916E-05 0.000E+00
     extrapolated charge   50.97910, renormalised to   51.00000

     total cpu time spent up to now is      148.3 secs

     Self-consistent Calculation

     iteration #  1     ecut=    80.00 Ry     beta= 0.40
     Davidson diagonalization with overlap
     ethr =  1.00E-06,  avg # of iterations =  4.0

     negative rho (up, down):  4.925E-05 0.000E+00

     total cpu time spent up to now is      157.0 secs

     total energy              =     -77.16396340 Ry
     Harris-Foulkes estimate   =     -77.26497033 Ry
     estimated scf accuracy    <       0.00020713 Ry

     iteration #  2     ecut=    80.00 Ry     beta= 0.40
     Davidson diagonalization with overlap
     ethr =  4.06E-07,  avg # of iterations =  5.0

     negative rho (up, down):  4.921E-05 0.000E+00

     total cpu time spent up to now is      165.4 secs

     total energy              =     -77.16391251 Ry
     Harris-Foulkes estimate   =     -77.16420184 Ry
     estimated scf accuracy    <       0.00179110 Ry

     iteration #  3     ecut=    80.00 Ry     beta= 0.40
     Davidson diagonalization with overlap
     ethr =  4.06E-07,  avg # of iterations =  5.0

     negative rho (up, down):  4.918E-05 0.000E+00

     total cpu time spent up to now is      172.7 secs

     total energy              =     -77.16404836 Ry
     Harris-Foulkes estimate   =     -77.16406668 Ry
     estimated scf accuracy    <       0.00008385 Ry

     iteration #  4     ecut=    80.00 Ry     beta= 0.40
     Davidson diagonalization with overlap
     ethr =  1.64E-07,  avg # of iterations =  3.0

     negative rho (up, down):  4.916E-05 0.000E+00

     total cpu time spent up to now is      178.8 secs

     total energy              =     -77.16405585 Ry
     Harris-Foulkes estimate   =     -77.16406194 Ry
     estimated scf accuracy    <       0.00002701 Ry

     iteration #  5     ecut=    80.00 Ry     beta= 0.40
     Davidson diagonalization with overlap
     ethr =  5.30E-08,  avg # of iterations =  2.0

     negative rho (up, down):  4.913E-05 0.000E+00

     total cpu time spent up to now is      184.6 secs

     total energy              =     -77.16405857 Ry
     Harris-Foulkes estimate   =     -77.16405949 Ry
     estimated scf accuracy    <       0.00000372 Ry

     iteration #  6     ecut=    80.00 Ry     beta= 0.40
     Davidson diagonalization with overlap
     ethr =  7.29E-09,  avg # of iterations =  4.0

     negative rho (up, down):  4.912E-05 0.000E+00

     total cpu time spent up to now is      192.0 secs

     total energy              =     -77.16405873 Ry
     Harris-Foulkes estimate   =     -77.16406072 Ry
     estimated scf accuracy    <       0.00001078 Ry

     iteration #  7     ecut=    80.00 Ry     beta= 0.40
     Davidson diagonalization with overlap
     ethr =  7.29E-09,  avg # of iterations =  7.0

     negative rho (up, down):  4.912E-05 0.000E+00

     total cpu time spent up to now is      198.9 secs

     total energy              =     -77.16405978 Ry
     Harris-Foulkes estimate   =     -77.16406002 Ry
     estimated scf accuracy    <       0.00000148 Ry

     iteration #  8     ecut=    80.00 Ry     beta= 0.40
     Davidson diagonalization with overlap
     ethr =  2.90E-09,  avg # of iterations =  4.0

     negative rho (up, down):  4.911E-05 0.000E+00

     total cpu time spent up to now is      204.9 secs

     End of self-consistent calculation

          k = 0.0000 0.0000 0.0000 (252395 PWs)   bands (ev):

    -9.9962  -9.1515  -9.0993  -9.0992  -9.0556  -9.0554  -8.4039  -7.5358
    -7.4656  -7.4655  -6.7338  -5.8835  -5.8717  -5.8716  -5.6129  -5.6127
    -4.7563  -4.7562  -4.0020  -3.5552  -3.2990  -3.2862  -3.2860  -3.2412
    -3.1448  -3.1120  -3.1118  -3.0975  -3.0974  -2.7447  -2.7444

     the Fermi energy is    -3.1120 ev

!    total energy              =     -77.16405968 Ry
     Harris-Foulkes estimate   =     -77.16405996 Ry
     estimated scf accuracy    <       0.00000043 Ry

     The total energy is the sum of the following terms:

     one-electron contribution =    -269.17396192 Ry
     hartree contribution      =     139.27828000 Ry
     xc contribution           =     -33.51195165 Ry
     ewald contribution        =      86.36376801 Ry
     smearing contrib. (-TS)   =      -0.12019411 Ry

     convergence has been achieved in   8 iterations

     negative rho (up, down):  4.911E-05 0.000E+00

     Forces acting on atoms (cartesian axes, Ry/au):

     atom    1 type  1   force =    -0.01912232    0.01106583    0.00000000
     atom    2 type  1   force =     0.00251930   -0.00316156    0.00000000
     atom    3 type  1   force =    -0.00000000    0.00791372    0.00000000
     atom    4 type  1   force =     0.00149668    0.00376260    0.00000000
     atom    5 type  1   force =     0.00000000   -0.02210428    0.00000000
     atom    6 type  1   force =    -0.00149668    0.00376260    0.00000000
     atom    7 type  1   force =     0.00024656    0.00010641    0.00000000
     atom    8 type  1   force =     0.00401382   -0.00060240    0.00000000
     atom    9 type  1   force =    -0.00683413   -0.00393251    0.00000000
     atom   10 type  1   force =     0.00000000   -0.00000098    0.00000000
     atom   11 type  1   force =     0.00683413   -0.00393251    0.00000000
     atom   12 type  1   force =    -0.00251930   -0.00316156    0.00000000
     atom   13 type  1   force =     0.01912232    0.01106583    0.00000000
     atom   14 type  1   force =     0.00000000   -0.00000473    0.00000000
     atom   15 type  1   force =    -0.00024656    0.00010641    0.00000000
     atom   16 type  1   force =    -0.00401382   -0.00060240    0.00000000
     atom   17 type  1   force =     0.00000000   -0.00028044    0.00000000

     Total force =     0.041838     Total SCF correction =     0.000479


     Computing stress (Cartesian axis) and pressure


     negative rho (up, down):  4.911E-05 0.000E+00
          total   stress  (Ry/bohr**3)                   (kbar)     P=   -0.87
  -0.00000888   0.00000000   0.00000000         -1.31      0.00      0.00
   0.00000000  -0.00000886   0.00000000          0.00     -1.30      0.00
   0.00000000   0.00000000   0.00000004          0.00      0.00      0.01


     number of scf cycles    =   2
     number of bfgs steps    =   1

     enthalpy old            =     -77.1621173092 Ry
     enthalpy new            =     -77.1640596774 Ry

     CASE: enthalpy_new < enthalpy_old


     WARNING: bfgs curvature condition failed, Theta= 0.837
     new trust radius        =       0.0334495267 bohr
     new conv_thr            =       0.0000010000 Ry

     new unit-cell volume =  20863.80626 a.u.^3 (  3091.69707 Ang^3 )
     density =      0.27375 g/cm^3

CELL_PARAMETERS (alat= 25.26072511)
   0.999473260   0.000000000   0.000000000
  -0.499736630   0.865569354   0.000000000
   0.000000000   0.000000000   1.496177267

ATOMIC_POSITIONS (angstrom)
Al       2.201254122   1.300344943   0.000000000
Al       4.458167738   2.567127615   0.000000000
Al       6.680226943   1.297594162   0.000000000
Al      -2.225551008   6.434223252   0.000000000
Al       0.000032082   5.112955359   0.000000000
Al       2.225581333   6.434241438   0.000000000
Al       4.454170195   5.142827159   0.000000000
Al      -4.447529922  10.282865085   0.000000000
Al      -2.237036257   8.993324518   0.000000000
Al       0.000030911  10.284891321   0.000000000
Al       2.237131917   8.993342704   0.000000000
Al       8.902252308   2.567145801   0.000000000
Al      11.159199763   1.300381315   0.000000000
Al       6.680225771   6.428100667   0.000000000
Al       8.906315187   5.142845345   0.000000000
Al       4.447591743  10.282901458   0.000000000
Al       6.680258439   8.998583312   0.000000000



     Writing output data file 1al_planar_2x2_vcr.save/
     NEW-OLD atomic charge density approx. for the potential

     negative rho (up, down):  4.914E-05 0.000E+00
     extrapolated charge   50.96720, renormalised to   51.00000

     total cpu time spent up to now is      245.2 secs

     Self-consistent Calculation

     iteration #  1     ecut=    80.00 Ry     beta= 0.40
     Davidson diagonalization with overlap
     ethr =  1.00E-06,  avg # of iterations =  4.0

     negative rho (up, down):  4.928E-05 0.000E+00

     total cpu time spent up to now is      254.1 secs

     total energy              =     -77.16668444 Ry
     Harris-Foulkes estimate   =     -77.32515928 Ry
     estimated scf accuracy    <       0.00023004 Ry

     iteration #  2     ecut=    80.00 Ry     beta= 0.40
     Davidson diagonalization with overlap
     ethr =  4.51E-07,  avg # of iterations =  4.0

     negative rho (up, down):  4.922E-05 0.000E+00

     total cpu time spent up to now is      261.6 secs

     total energy              =     -77.16670841 Ry
     Harris-Foulkes estimate   =     -77.16687750 Ry
     estimated scf accuracy    <       0.00080203 Ry

     iteration #  3     ecut=    80.00 Ry     beta= 0.40
     Davidson diagonalization with overlap
     ethr =  4.51E-07,  avg # of iterations =  3.0

     negative rho (up, down):  4.920E-05 0.000E+00

     total cpu time spent up to now is      267.9 secs

     total energy              =     -77.16678247 Ry
     Harris-Foulkes estimate   =     -77.16679586 Ry
     estimated scf accuracy    <       0.00005615 Ry

     iteration #  4     ecut=    80.00 Ry     beta= 0.40
     Davidson diagonalization with overlap
     ethr =  1.10E-07,  avg # of iterations =  3.0

     negative rho (up, down):  4.918E-05 0.000E+00

     total cpu time spent up to now is      273.5 secs

     total energy              =     -77.16678517 Ry
     Harris-Foulkes estimate   =     -77.16679084 Ry
     estimated scf accuracy    <       0.00002073 Ry

     iteration #  5     ecut=    80.00 Ry     beta= 0.40
     Davidson diagonalization with overlap
     ethr =  4.06E-08,  avg # of iterations =  3.0

     negative rho (up, down):  4.910E-05 0.000E+00

     total cpu time spent up to now is      279.4 secs

     total energy              =     -77.16678688 Ry
     Harris-Foulkes estimate   =     -77.16679135 Ry
     estimated scf accuracy    <       0.00002329 Ry

     iteration #  6     ecut=    80.00 Ry     beta= 0.40
     Davidson diagonalization with overlap
     ethr =  4.06E-08,  avg # of iterations =  5.0

     negative rho (up, down):  4.908E-05 0.000E+00

     total cpu time spent up to now is      285.4 secs

     total energy              =     -77.16678925 Ry
     Harris-Foulkes estimate   =     -77.16679019 Ry
     estimated scf accuracy    <       0.00000420 Ry

     iteration #  7     ecut=    80.00 Ry     beta= 0.40
     Davidson diagonalization with overlap
     ethr =  8.23E-09,  avg # of iterations =  4.0

     negative rho (up, down):  4.907E-05 0.000E+00

     total cpu time spent up to now is      291.7 secs

     total energy              =     -77.16678986 Ry
     Harris-Foulkes estimate   =     -77.16679032 Ry
     estimated scf accuracy    <       0.00000256 Ry

     iteration #  8     ecut=    80.00 Ry     beta= 0.40
     Davidson diagonalization with overlap
     ethr =  5.02E-09,  avg # of iterations =  1.0

     negative rho (up, down):  4.904E-05 0.000E+00

     total cpu time spent up to now is      296.7 secs

     End of self-consistent calculation

          k = 0.0000 0.0000 0.0000 (252395 PWs)   bands (ev):

    -9.9961  -9.1475  -9.1020  -9.1019  -9.0489  -9.0487  -8.3977  -7.5324
    -7.4629  -7.4628  -6.7446  -5.8809  -5.8613  -5.8612  -5.6178  -5.6177
    -4.7625  -4.7624  -4.0013  -3.5881  -3.2846  -3.2803  -3.2803  -3.2487
    -3.1410  -3.1122  -3.1121  -3.0933  -3.0932  -2.7352  -2.7350

     the Fermi energy is    -3.1096 ev

!    total energy              =     -77.16678987 Ry
     Harris-Foulkes estimate   =     -77.16679007 Ry
     estimated scf accuracy    <       0.00000041 Ry

     The total energy is the sum of the following terms:

     one-electron contribution =    -269.23274834 Ry
     hartree contribution      =     139.30403981 Ry
     xc contribution           =     -33.50467506 Ry
     ewald contribution        =      86.38527181 Ry
     smearing contrib. (-TS)   =      -0.11867808 Ry

     convergence has been achieved in   8 iterations

     negative rho (up, down):  4.904E-05 0.000E+00

     Forces acting on atoms (cartesian axes, Ry/au):

     atom    1 type  1   force =    -0.01887616    0.01090190    0.00000000
     atom    2 type  1   force =     0.00041203   -0.00328828    0.00000000
     atom    3 type  1   force =    -0.00000000    0.00574658    0.00000000
     atom    4 type  1   force =     0.00265315    0.00198527    0.00000000
     atom    5 type  1   force =     0.00000000   -0.02179364    0.00000000
     atom    6 type  1   force =    -0.00265315    0.00198527    0.00000000
     atom    7 type  1   force =    -0.00027560   -0.00017736    0.00000000
     atom    8 type  1   force =     0.00304002    0.00129051    0.00000000
     atom    9 type  1   force =    -0.00495583   -0.00285223    0.00000000
     atom   10 type  1   force =     0.00000000   -0.00000039    0.00000000
     atom   11 type  1   force =     0.00495583   -0.00285223    0.00000000
     atom   12 type  1   force =    -0.00041203   -0.00328828    0.00000000
     atom   13 type  1   force =     0.01887616    0.01090190    0.00000000
     atom   14 type  1   force =    -0.00000000    0.00000330    0.00000000
     atom   15 type  1   force =     0.00027560   -0.00017736    0.00000000
     atom   16 type  1   force =    -0.00304002    0.00129051    0.00000000
     atom   17 type  1   force =    -0.00000000    0.00032453    0.00000000

     Total force =     0.039872     Total SCF correction =     0.000335


     Computing stress (Cartesian axis) and pressure


     negative rho (up, down):  4.904E-05 0.000E+00
          total   stress  (Ry/bohr**3)                   (kbar)     P=   -0.96
  -0.00000981   0.00000000  -0.00000000         -1.44      0.00     -0.00
   0.00000000  -0.00000981   0.00000000          0.00     -1.44      0.00
  -0.00000000   0.00000000   0.00000007         -0.00      0.00      0.01


     number of scf cycles    =   3
     number of bfgs steps    =   2

     enthalpy old            =     -77.1640596774 Ry
     enthalpy new            =     -77.1667898657 Ry

     CASE: enthalpy_new < enthalpy_old

     new trust radius        =       0.0501581569 bohr
     new conv_thr            =       0.0000010000 Ry

     new unit-cell volume =  20842.35764 a.u.^3 (  3088.51871 Ang^3 )
     density =      0.27404 g/cm^3

CELL_PARAMETERS (alat= 25.26072511)
   0.998959505   0.000000000   0.000000000
  -0.499479752   0.865124219   0.000000000
   0.000000000   0.000000000   1.496177267

ATOMIC_POSITIONS (angstrom)
Al       2.177167494   1.312926175   0.000000000
Al       4.458462559   2.561965664   0.000000000
Al       6.676793130   1.306047004   0.000000000
Al      -2.222411347   6.435087221   0.000000000
Al       0.000032066   5.083797026   0.000000000
Al       2.222441656   6.435105398   0.000000000
Al       4.452068264   5.140277947   0.000000000
Al      -4.440643535  10.277241757   0.000000000
Al      -2.243771298   8.984162314   0.000000000
Al       0.000030895  10.279586474   0.000000000
Al       2.243866910   8.984180491   0.000000000
Al       8.895089878   2.561983841   0.000000000
Al      11.176418765   1.312962529   0.000000000
Al       6.676791959   6.424799195   0.000000000
Al       8.901549475   5.140296124   0.000000000
Al       4.440705324  10.277278111   0.000000000
Al       6.676824610   8.993767207   0.000000000



     Writing output data file 1al_planar_2x2_vcr.save/
     NEW-OLD atomic charge density approx. for the potential

     negative rho (up, down):  4.909E-05 0.000E+00
     extrapolated charge   50.94756, renormalised to   51.00000

     total cpu time spent up to now is      337.3 secs

     Self-consistent Calculation

     iteration #  1     ecut=    80.00 Ry     beta= 0.40
     Davidson diagonalization with overlap
     ethr =  1.00E-06,  avg # of iterations =  6.0

     negative rho (up, down):  4.931E-05 0.000E+00

     total cpu time spent up to now is      347.4 secs

     total energy              =     -77.17040094 Ry
     Harris-Foulkes estimate   =     -77.42386267 Ry
     estimated scf accuracy    <       0.00039732 Ry

     iteration #  2     ecut=    80.00 Ry     beta= 0.40
     Davidson diagonalization with overlap
     ethr =  7.79E-07,  avg # of iterations =  5.0

     negative rho (up, down):  4.921E-05 0.000E+00

     total cpu time spent up to now is      355.0 secs

     total energy              =     -77.17046091 Ry
     Harris-Foulkes estimate   =     -77.17076809 Ry
     estimated scf accuracy    <       0.00153465 Ry

     iteration #  3     ecut=    80.00 Ry     beta= 0.40
     Davidson diagonalization with overlap
     ethr =  7.79E-07,  avg # of iterations =  3.0

     negative rho (up, down):  4.920E-05 0.000E+00

     total cpu time spent up to now is      361.3 secs

     total energy              =     -77.17058418 Ry
     Harris-Foulkes estimate   =     -77.17061717 Ry
     estimated scf accuracy    <       0.00014874 Ry

     iteration #  4     ecut=    80.00 Ry     beta= 0.40
     Davidson diagonalization with overlap
     ethr =  2.92E-07,  avg # of iterations =  4.0

     negative rho (up, down):  4.914E-05 0.000E+00

     total cpu time spent up to now is      367.2 secs

     total energy              =     -77.17058881 Ry
     Harris-Foulkes estimate   =     -77.17060656 Ry
     estimated scf accuracy    <       0.00008189 Ry

     iteration #  5     ecut=    80.00 Ry     beta= 0.40
     Davidson diagonalization with overlap
     ethr =  1.61E-07,  avg # of iterations =  4.0

     negative rho (up, down):  4.897E-05 0.000E+00

     total cpu time spent up to now is      372.6 secs

     total energy              =     -77.17059509 Ry
     Harris-Foulkes estimate   =     -77.17060125 Ry
     estimated scf accuracy    <       0.00003142 Ry

     iteration #  6     ecut=    80.00 Ry     beta= 0.40
     Davidson diagonalization with overlap
     ethr =  6.16E-08,  avg # of iterations =  3.0

     negative rho (up, down):  4.895E-05 0.000E+00

     total cpu time spent up to now is      378.4 secs

     total energy              =     -77.17059746 Ry
     Harris-Foulkes estimate   =     -77.17060190 Ry
     estimated scf accuracy    <       0.00002214 Ry

     iteration #  7     ecut=    80.00 Ry     beta= 0.40
     Davidson diagonalization with overlap
     ethr =  4.34E-08,  avg # of iterations =  1.0

     negative rho (up, down):  4.894E-05 0.000E+00

     total cpu time spent up to now is      383.9 secs

     total energy              =     -77.17059980 Ry
     Harris-Foulkes estimate   =     -77.17060042 Ry
     estimated scf accuracy    <       0.00000283 Ry

     iteration #  8     ecut=    80.00 Ry     beta= 0.40
     Davidson diagonalization with overlap
     ethr =  5.54E-09,  avg # of iterations =  5.0

     negative rho (up, down):  4.894E-05 0.000E+00

     total cpu time spent up to now is      390.8 secs

     total energy              =     -77.17060006 Ry
     Harris-Foulkes estimate   =     -77.17060045 Ry
     estimated scf accuracy    <       0.00000181 Ry

     iteration #  9     ecut=    80.00 Ry     beta= 0.40
     Davidson diagonalization with overlap
     ethr =  3.54E-09,  avg # of iterations =  3.0

     negative rho (up, down):  4.893E-05 0.000E+00

     total cpu time spent up to now is      396.7 secs

     total energy              =     -77.17060023 Ry
     Harris-Foulkes estimate   =     -77.17060040 Ry
     estimated scf accuracy    <       0.00000122 Ry

     iteration # 10     ecut=    80.00 Ry     beta= 0.40
     Davidson diagonalization with overlap
     ethr =  2.38E-09,  avg # of iterations =  2.0

     negative rho (up, down):  4.893E-05 0.000E+00

     total cpu time spent up to now is      402.0 secs

     End of self-consistent calculation

          k = 0.0000 0.0000 0.0000 (252395 PWs)   bands (ev):

    -9.9949  -9.1415  -9.1049  -9.1049  -9.0379  -9.0378  -8.3904  -7.5259
    -7.4582  -7.4581  -6.7597  -5.8756  -5.8465  -5.8464  -5.6234  -5.6232
    -4.7710  -4.7709  -3.9997  -3.6400  -3.2706  -3.2705  -3.2656  -3.2541
    -3.1351  -3.1130  -3.1130  -3.0851  -3.0850  -2.7210  -2.7208

     the Fermi energy is    -3.1048 ev

!    total energy              =     -77.17060020 Ry
     Harris-Foulkes estimate   =     -77.17060037 Ry
     estimated scf accuracy    <       0.00000020 Ry

     The total energy is the sum of the following terms:

     one-electron contribution =    -269.33026348 Ry
     hartree contribution      =     139.34451153 Ry
     xc contribution           =     -33.49368656 Ry
     ewald contribution        =      86.42533595 Ry
     smearing contrib. (-TS)   =      -0.11649764 Ry

     convergence has been achieved in  10 iterations

     negative rho (up, down):  4.893E-05 0.000E+00

     Forces acting on atoms (cartesian axes, Ry/au):

     atom    1 type  1   force =    -0.01847495    0.01066517    0.00000000
     atom    2 type  1   force =    -0.00245290   -0.00336845    0.00000000
     atom    3 type  1   force =    -0.00000000    0.00290973    0.00000000
     atom    4 type  1   force =     0.00417356   -0.00044025    0.00000000
     atom    5 type  1   force =     0.00000000   -0.02130002    0.00000000
     atom    6 type  1   force =    -0.00417356   -0.00044025    0.00000000
     atom    7 type  1   force =    -0.00096624   -0.00056111    0.00000000
     atom    8 type  1   force =     0.00170628    0.00379413    0.00000000
     atom    9 type  1   force =    -0.00252566   -0.00144808    0.00000000
     atom   10 type  1   force =     0.00000000   -0.00001617    0.00000000
     atom   11 type  1   force =     0.00252566   -0.00144808    0.00000000
     atom   12 type  1   force =     0.00245290   -0.00336845    0.00000000
     atom   13 type  1   force =     0.01847495    0.01066517    0.00000000
     atom   14 type  1   force =    -0.00000000    0.00001209    0.00000000
     atom   15 type  1   force =     0.00096624   -0.00056111    0.00000000
     atom   16 type  1   force =    -0.00170628    0.00379413    0.00000000
     atom   17 type  1   force =    -0.00000000    0.00111154    0.00000000

     Total force =     0.038698     Total SCF correction =     0.000320


     Computing stress (Cartesian axis) and pressure


     negative rho (up, down):  4.893E-05 0.000E+00
          total   stress  (Ry/bohr**3)                   (kbar)     P=   -1.10
  -0.00001117   0.00000000   0.00000000         -1.64      0.00      0.00
   0.00000000  -0.00001117   0.00000000          0.00     -1.64      0.00
   0.00000000   0.00000000  -0.00000001          0.00      0.00     -0.00


     number of scf cycles    =   4
     number of bfgs steps    =   3

     enthalpy old            =     -77.1667898657 Ry
     enthalpy new            =     -77.1706002028 Ry

     CASE: enthalpy_new < enthalpy_old

     new trust radius        =       0.0751985432 bohr
     new conv_thr            =       0.0000010000 Ry

     new unit-cell volume =  20808.49516 a.u.^3 (  3083.50081 Ang^3 )
     density =      0.27448 g/cm^3

CELL_PARAMETERS (alat= 25.26072511)
   0.998147804   0.000000000   0.000000000
  -0.499073902   0.864421038   0.000000000
   0.000000000   0.000000000   1.496177267

ATOMIC_POSITIONS (angstrom)
Al       2.140980261   1.331723021   0.000000000
Al       4.457180534   2.554053143   0.000000000
Al       6.671367926   1.317225042   0.000000000
Al      -2.216776912   6.434832632   0.000000000
Al       0.000032040   5.039903857   0.000000000
Al       2.216807197   6.434850794   0.000000000
Al       4.448360054   5.136038146   0.000000000
Al      -4.430823806  10.269737185   0.000000000
Al      -2.252547619   8.970764743   0.000000000
Al       0.000030870  10.271194854   0.000000000
Al       2.252643153   8.970782905   0.000000000
Al       8.885521524   2.554071305   0.000000000
Al      11.201755591   1.331759345   0.000000000
Al       6.671366756   6.419588960   0.000000000
Al       8.894407253   5.136056308   0.000000000
Al       4.430885546  10.269773510   0.000000000
Al       6.671399381   8.986599261   0.000000000



     Writing output data file 1al_planar_2x2_vcr.save/
     NEW-OLD atomic charge density approx. for the potential

     negative rho (up, down):  4.902E-05 0.000E+00
     extrapolated charge   50.91707, renormalised to   51.00000

     total cpu time spent up to now is      442.2 secs

     Self-consistent Calculation

     iteration #  1     ecut=    80.00 Ry     beta= 0.40
     Davidson diagonalization with overlap
     ethr =  1.00E-06,  avg # of iterations =  7.0

     negative rho (up, down):  4.937E-05 0.000E+00

     total cpu time spent up to now is      452.9 secs

     total energy              =     -77.17529457 Ry
     Harris-Foulkes estimate   =     -77.57662280 Ry
     estimated scf accuracy    <       0.00108566 Ry

     iteration #  2     ecut=    80.00 Ry     beta= 0.40
     Davidson diagonalization with overlap
     ethr =  2.13E-06,  avg # of iterations =  5.0

     negative rho (up, down):  4.921E-05 0.000E+00

     total cpu time spent up to now is      460.5 secs

     total energy              =     -77.17543169 Ry
     Harris-Foulkes estimate   =     -77.17647560 Ry
     estimated scf accuracy    <       0.00545577 Ry

     iteration #  3     ecut=    80.00 Ry     beta= 0.40
     Davidson diagonalization with overlap
     ethr =  2.13E-06,  avg # of iterations =  3.0

     negative rho (up, down):  4.918E-05 0.000E+00

     total cpu time spent up to now is      467.2 secs

     total energy              =     -77.17585352 Ry
     Harris-Foulkes estimate   =     -77.17592717 Ry
     estimated scf accuracy    <       0.00035367 Ry

     iteration #  4     ecut=    80.00 Ry     beta= 0.40
     Davidson diagonalization with overlap
     ethr =  6.93E-07,  avg # of iterations =  5.0

     negative rho (up, down):  4.909E-05 0.000E+00

     total cpu time spent up to now is      473.1 secs

     total energy              =     -77.17586698 Ry
     Harris-Foulkes estimate   =     -77.17590575 Ry
     estimated scf accuracy    <       0.00021516 Ry

     iteration #  5     ecut=    80.00 Ry     beta= 0.40
     Davidson diagonalization with overlap
     ethr =  4.22E-07,  avg # of iterations =  4.0

     negative rho (up, down):  4.875E-05 0.000E+00

     total cpu time spent up to now is      478.5 secs

     total energy              =     -77.17587284 Ry
     Harris-Foulkes estimate   =     -77.17588893 Ry
     estimated scf accuracy    <       0.00006940 Ry

     iteration #  6     ecut=    80.00 Ry     beta= 0.40
     Davidson diagonalization with overlap
     ethr =  1.36E-07,  avg # of iterations =  4.0

     negative rho (up, down):  4.874E-05 0.000E+00

     total cpu time spent up to now is      485.0 secs

     total energy              =     -77.17588394 Ry
     Harris-Foulkes estimate   =     -77.17588930 Ry
     estimated scf accuracy    <       0.00002593 Ry

     iteration #  7     ecut=    80.00 Ry     beta= 0.40
     Davidson diagonalization with overlap
     ethr =  5.08E-08,  avg # of iterations =  3.0

     negative rho (up, down):  4.875E-05 0.000E+00

     total cpu time spent up to now is      490.7 secs

     total energy              =     -77.17588537 Ry
     Harris-Foulkes estimate   =     -77.17588796 Ry
     estimated scf accuracy    <       0.00001391 Ry

     iteration #  8     ecut=    80.00 Ry     beta= 0.40
     Davidson diagonalization with overlap
     ethr =  2.73E-08,  avg # of iterations =  1.0

     negative rho (up, down):  4.875E-05 0.000E+00

     total cpu time spent up to now is      495.9 secs

     total energy              =     -77.17588559 Ry
     Harris-Foulkes estimate   =     -77.17588658 Ry
     estimated scf accuracy    <       0.00000401 Ry

     iteration #  9     ecut=    80.00 Ry     beta= 0.40
     Davidson diagonalization with overlap
     ethr =  7.86E-09,  avg # of iterations =  4.0

     negative rho (up, down):  4.875E-05 0.000E+00

     total cpu time spent up to now is      502.1 secs

     total energy              =     -77.17588586 Ry
     Harris-Foulkes estimate   =     -77.17588669 Ry
     estimated scf accuracy    <       0.00000530 Ry

     iteration # 10     ecut=    80.00 Ry     beta= 0.40
     Davidson diagonalization with overlap
     ethr =  7.86E-09,  avg # of iterations =  3.0

     negative rho (up, down):  4.874E-05 0.000E+00

     total cpu time spent up to now is      507.8 secs

     End of self-consistent calculation

          k = 0.0000 0.0000 0.0000 (252395 PWs)   bands (ev):

    -9.9941  -9.1333  -9.1099  -9.1098  -9.0236  -9.0234  -8.3840  -7.5173
    -7.4520  -7.4519  -6.7837  -5.8673  -5.8272  -5.8272  -5.6319  -5.6317
    -4.7844  -4.7844  -3.9978  -3.7242  -3.2730  -3.2564  -3.2563  -3.2266
    -3.1265  -3.1147  -3.1147  -3.0737  -3.0735  -2.7019  -2.7017

     the Fermi energy is    -3.0974 ev

!    total energy              =     -77.17588576 Ry
     Harris-Foulkes estimate   =     -77.17588646 Ry
     estimated scf accuracy    <       0.00000087 Ry

     The total energy is the sum of the following terms:

     one-electron contribution =    -269.49991695 Ry
     hartree contribution      =     139.41876861 Ry
     xc contribution           =     -33.47893256 Ry
     ewald contribution        =      86.49782948 Ry
     smearing contrib. (-TS)   =      -0.11363435 Ry

     convergence has been achieved in  10 iterations

     negative rho (up, down):  4.874E-05 0.000E+00

     Forces acting on atoms (cartesian axes, Ry/au):

     atom    1 type  1   force =    -0.01747349    0.01010401    0.00000000
     atom    2 type  1   force =    -0.00641666   -0.00332565    0.00000000
     atom    3 type  1   force =     0.00000000   -0.00084258    0.00000000
     atom    4 type  1   force =     0.00610723   -0.00391894    0.00000000
     atom    5 type  1   force =     0.00000000   -0.02019425    0.00000000
     atom    6 type  1   force =    -0.00610723   -0.00391894    0.00000000
     atom    7 type  1   force =    -0.00190011   -0.00110162    0.00000000
     atom    8 type  1   force =    -0.00032192    0.00724026    0.00000000
     atom    9 type  1   force =     0.00072799    0.00041884    0.00000000
     atom   10 type  1   force =    -0.00000000    0.00002705    0.00000000
     atom   11 type  1   force =    -0.00072799    0.00041884    0.00000000
     atom   12 type  1   force =     0.00641666   -0.00332565    0.00000000
     atom   13 type  1   force =     0.01747349    0.01010401    0.00000000
     atom   14 type  1   force =     0.00000000   -0.00000706    0.00000000
     atom   15 type  1   force =     0.00190011   -0.00110162    0.00000000
     atom   16 type  1   force =     0.00032192    0.00724026    0.00000000
     atom   17 type  1   force =    -0.00000000    0.00218304    0.00000000

     Total force =     0.039421     Total SCF correction =     0.000805


     Computing stress (Cartesian axis) and pressure


     negative rho (up, down):  4.874E-05 0.000E+00
          total   stress  (Ry/bohr**3)                   (kbar)     P=   -1.29
  -0.00001310   0.00000000   0.00000000         -1.93      0.00      0.00
   0.00000000  -0.00001311  -0.00000000          0.00     -1.93     -0.00
   0.00000000   0.00000000  -0.00000001          0.00      0.00     -0.00


     number of scf cycles    =   5
     number of bfgs steps    =   4

     enthalpy old            =     -77.1706002028 Ry
     enthalpy new            =     -77.1758857630 Ry

     CASE: enthalpy_new < enthalpy_old

     new trust radius        =       0.1127061317 bohr
     new conv_thr            =       0.0000010000 Ry

     new unit-cell volume =  20755.13931 a.u.^3 (  3075.59429 Ang^3 )
     density =      0.27519 g/cm^3

CELL_PARAMETERS (alat= 25.26072511)
   0.996867784   0.000000000   0.000000000
  -0.498433892   0.863311650   0.000000000
   0.000000000   0.000000000   1.496177267

ATOMIC_POSITIONS (angstrom)
Al       2.086715015   1.359762222   0.000000000
Al       4.452955763   2.542012400   0.000000000
Al       6.662812595   1.332197955   0.000000000
Al      -2.207183289   6.432283776   0.000000000
Al       0.000031998   4.973870731   0.000000000
Al       2.207213535   6.432301915   0.000000000
Al       4.442042103   5.129074637   0.000000000
Al      -4.416827053  10.259612838   0.000000000
Al      -2.264084714   8.950952449   0.000000000
Al       0.000030830  10.257989841   0.000000000
Al       2.264180125   8.950970588   0.000000000
Al       8.872635675   2.542030539   0.000000000
Al      11.238910175   1.359798500   0.000000000
Al       6.662811426   6.411352078   0.000000000
Al       8.883614501   5.129092776   0.000000000
Al       4.416888713  10.259649116   0.000000000
Al       6.662844009   8.975829915   0.000000000



     Writing output data file 1al_planar_2x2_vcr.save/
     NEW-OLD atomic charge density approx. for the potential

     negative rho (up, down):  4.889E-05 0.000E+00
     extrapolated charge   50.86900, renormalised to   51.00000

     total cpu time spent up to now is      548.0 secs

     Self-consistent Calculation

     iteration #  1     ecut=    80.00 Ry     beta= 0.40
     Davidson diagonalization with overlap
     ethr =  1.00E-06,  avg # of iterations =  8.0

     negative rho (up, down):  4.941E-05 0.000E+00

     total cpu time spent up to now is      559.7 secs

     total energy              =     -77.18114680 Ry
     Harris-Foulkes estimate   =     -77.81661381 Ry
     estimated scf accuracy    <       0.00306457 Ry

     iteration #  2     ecut=    80.00 Ry     beta= 0.40
     Davidson diagonalization with overlap
     ethr =  6.01E-06,  avg # of iterations =  5.0

     negative rho (up, down):  4.913E-05 0.000E+00

     total cpu time spent up to now is      567.3 secs

     total energy              =     -77.18149619 Ry
     Harris-Foulkes estimate   =     -77.18470794 Ry
     estimated scf accuracy    <       0.01699552 Ry

     iteration #  3     ecut=    80.00 Ry     beta= 0.40
     Davidson diagonalization with overlap
     ethr =  6.01E-06,  avg # of iterations =  4.0

     negative rho (up, down):  4.909E-05 0.000E+00

     total cpu time spent up to now is      574.2 secs

     total energy              =     -77.18279116 Ry
     Harris-Foulkes estimate   =     -77.18299673 Ry
     estimated scf accuracy    <       0.00107753 Ry

     iteration #  4     ecut=    80.00 Ry     beta= 0.40
     Davidson diagonalization with overlap
     ethr =  2.11E-06,  avg # of iterations =  5.0

     negative rho (up, down):  4.896E-05 0.000E+00

     total cpu time spent up to now is      580.0 secs

     total energy              =     -77.18284516 Ry
     Harris-Foulkes estimate   =     -77.18292873 Ry
     estimated scf accuracy    <       0.00051679 Ry

     iteration #  5     ecut=    80.00 Ry     beta= 0.40
     Davidson diagonalization with overlap
     ethr =  1.01E-06,  avg # of iterations =  4.0

     negative rho (up, down):  4.838E-05 0.000E+00

     total cpu time spent up to now is      585.5 secs

     total energy              =     -77.18283248 Ry
     Harris-Foulkes estimate   =     -77.18288611 Ry
     estimated scf accuracy    <       0.00019084 Ry

     iteration #  6     ecut=    80.00 Ry     beta= 0.40
     Davidson diagonalization with overlap
     ethr =  3.74E-07,  avg # of iterations =  4.0

     negative rho (up, down):  4.837E-05 0.000E+00

     total cpu time spent up to now is      592.4 secs

     total energy              =     -77.18287303 Ry
     Harris-Foulkes estimate   =     -77.18288523 Ry
     estimated scf accuracy    <       0.00006626 Ry

     iteration #  7     ecut=    80.00 Ry     beta= 0.40
     Davidson diagonalization with overlap
     ethr =  1.30E-07,  avg # of iterations =  3.0

     negative rho (up, down):  4.838E-05 0.000E+00

     total cpu time spent up to now is      597.7 secs

     total energy              =     -77.18287408 Ry
     Harris-Foulkes estimate   =     -77.18288024 Ry
     estimated scf accuracy    <       0.00004053 Ry

     iteration #  8     ecut=    80.00 Ry     beta= 0.40
     Davidson diagonalization with overlap
     ethr =  7.95E-08,  avg # of iterations =  1.0

     negative rho (up, down):  4.840E-05 0.000E+00

     total cpu time spent up to now is      602.8 secs

     total energy              =     -77.18287228 Ry
     Harris-Foulkes estimate   =     -77.18287673 Ry
     estimated scf accuracy    <       0.00001583 Ry

     iteration #  9     ecut=    80.00 Ry     beta= 0.40
     Davidson diagonalization with overlap
     ethr =  3.10E-08,  avg # of iterations =  3.0

     negative rho (up, down):  4.841E-05 0.000E+00

     total cpu time spent up to now is      609.4 secs

     total energy              =     -77.18287387 Ry
     Harris-Foulkes estimate   =     -77.18287541 Ry
     estimated scf accuracy    <       0.00000901 Ry

     iteration # 10     ecut=    80.00 Ry     beta= 0.40
     Davidson diagonalization with overlap
     ethr =  1.77E-08,  avg # of iterations =  3.0

     negative rho (up, down):  4.841E-05 0.000E+00

     total cpu time spent up to now is      614.8 secs

     total energy              =     -77.18287451 Ry
     Harris-Foulkes estimate   =     -77.18287480 Ry
     estimated scf accuracy    <       0.00000158 Ry

     iteration # 11     ecut=    80.00 Ry     beta= 0.40
     Davidson diagonalization with overlap
     ethr =  3.10E-09,  avg # of iterations =  6.0

     negative rho (up, down):  4.842E-05 0.000E+00

     total cpu time spent up to now is      621.1 secs

     End of self-consistent calculation

          k = 0.0000 0.0000 0.0000 (252395 PWs)   bands (ev):

    -9.9935  -9.1207  -9.1164  -9.1163  -9.0058  -9.0055  -8.3835  -7.5054
    -7.4437  -7.4436  -6.8237  -5.8530  -5.8028  -5.8027  -5.6443  -5.6442
    -4.8052  -4.8052  -3.9953  -3.8675  -3.2902  -3.2347  -3.2346  -3.1777
    -3.1160  -3.1159  -3.1128  -3.0594  -3.0592  -2.6762  -2.6760

     the Fermi energy is    -3.0847 ev

!    total energy              =     -77.18287468 Ry
     Harris-Foulkes estimate   =     -77.18287479 Ry
     estimated scf accuracy    <       0.00000028 Ry

     The total energy is the sum of the following terms:

     one-electron contribution =    -269.78961712 Ry
     hartree contribution      =     139.54635279 Ry
     xc contribution           =     -33.45858968 Ry
     ewald contribution        =      86.62991035 Ry
     smearing contrib. (-TS)   =      -0.11093102 Ry

     convergence has been achieved in  11 iterations

     negative rho (up, down):  4.842E-05 0.000E+00

     Forces acting on atoms (cartesian axes, Ry/au):

     atom    1 type  1   force =    -0.01490708    0.00860741    0.00000000
     atom    2 type  1   force =    -0.01203395   -0.00283887    0.00000000
     atom    3 type  1   force =     0.00000000   -0.00600239    0.00000000
     atom    4 type  1   force =     0.00853401   -0.00902035    0.00000000
     atom    5 type  1   force =     0.00000000   -0.01717614    0.00000000
     atom    6 type  1   force =    -0.00853401   -0.00902035    0.00000000
     atom    7 type  1   force =    -0.00317072   -0.00184315    0.00000000
     atom    8 type  1   force =    -0.00354404    0.01185856    0.00000000
     atom    9 type  1   force =     0.00518042    0.00298839    0.00000000
     atom   10 type  1   force =    -0.00000000    0.00001342    0.00000000
     atom   11 type  1   force =    -0.00518042    0.00298839    0.00000000
     atom   12 type  1   force =     0.01203395   -0.00283887    0.00000000
     atom   13 type  1   force =     0.01490708    0.00860741    0.00000000
     atom   14 type  1   force =    -0.00000000    0.00002445    0.00000000
     atom   15 type  1   force =     0.00317072   -0.00184315    0.00000000
     atom   16 type  1   force =     0.00354404    0.01185856    0.00000000
     atom   17 type  1   force =    -0.00000000    0.00363669    0.00000000

     Total force =     0.044225     Total SCF correction =     0.000336


     Computing stress (Cartesian axis) and pressure


     negative rho (up, down):  4.842E-05 0.000E+00
          total   stress  (Ry/bohr**3)                   (kbar)     P=   -1.55
  -0.00001584   0.00000000  -0.00000000         -2.33      0.00     -0.00
   0.00000000  -0.00001583   0.00000000          0.00     -2.33      0.00
   0.00000000  -0.00000000  -0.00000001          0.00     -0.00     -0.00


     number of scf cycles    =   6
     number of bfgs steps    =   5

     enthalpy old            =     -77.1758857630 Ry
     enthalpy new            =     -77.1828746795 Ry

     CASE: enthalpy_new < enthalpy_old

     new trust radius        =       0.1688422290 bohr
     new conv_thr            =       0.0000010000 Ry

     new unit-cell volume =  20669.88797 a.u.^3 (  3062.96134 Ang^3 )
     density =      0.27632 g/cm^3

CELL_PARAMETERS (alat= 25.26072511)
   0.994818704   0.000000000   0.000000000
  -0.497409352   0.861536518   0.000000000
   0.000000000   0.000000000   1.496177267

ATOMIC_POSITIONS (angstrom)
Al       2.005276527   1.401503252   0.000000000
Al       4.442732128   2.523790939   0.000000000
Al       6.649117062   1.352085447   0.000000000
Al      -2.190975309   6.424696442   0.000000000
Al       0.000031933   4.874479766   0.000000000
Al       2.191005493   6.424714544   0.000000000
Al       4.431233553   5.117521537   0.000000000
Al      -4.397053249  10.245883065   0.000000000
Al      -2.279029683   8.921278320   0.000000000
Al       0.000030767  10.236848046   0.000000000
Al       2.279124898   8.921296421   0.000000000
Al       8.855468315   2.523809040   0.000000000
Al      11.292957598   1.401539456   0.000000000
Al       6.649115896   6.398197203   0.000000000
Al       8.867031921   5.117539638   0.000000000
Al       4.397114783  10.245919268   0.000000000
Al       6.649148412   8.959390411   0.000000000



     Writing output data file 1al_planar_2x2_vcr.save/
     NEW-OLD atomic charge density approx. for the potential

     negative rho (up, down):  4.877E-05 0.000E+00
     extrapolated charge   50.78983, renormalised to   51.00000

     total cpu time spent up to now is      661.1 secs

     Self-consistent Calculation

     iteration #  1     ecut=    80.00 Ry     beta= 0.40
     Davidson diagonalization with overlap
     ethr =  1.00E-06,  avg # of iterations =  9.0

     negative rho (up, down):  4.945E-05 0.000E+00

     total cpu time spent up to now is      674.1 secs

     total energy              =     -77.18573548 Ry
     Harris-Foulkes estimate   =     -78.20967794 Ry
     estimated scf accuracy    <       0.00901070 Ry

     iteration #  2     ecut=    80.00 Ry     beta= 0.40
     Davidson diagonalization with overlap
     ethr =  1.77E-05,  avg # of iterations = 11.0

     negative rho (up, down):  4.896E-05 0.000E+00

     total cpu time spent up to now is      682.0 secs

     total energy              =     -77.18619137 Ry
     Harris-Foulkes estimate   =     -77.19678641 Ry
     estimated scf accuracy    <       0.05912862 Ry

     iteration #  3     ecut=    80.00 Ry     beta= 0.40
     Davidson diagonalization with overlap
     ethr =  1.77E-05,  avg # of iterations =  4.0

     negative rho (up, down):  4.871E-05 0.000E+00

     total cpu time spent up to now is      688.9 secs

     total energy              =     -77.19038982 Ry
     Harris-Foulkes estimate   =     -77.19070803 Ry
     estimated scf accuracy    <       0.00255910 Ry

     iteration #  4     ecut=    80.00 Ry     beta= 0.40
     Davidson diagonalization with overlap
     ethr =  5.02E-06,  avg # of iterations =  3.0

     negative rho (up, down):  4.817E-05 0.000E+00

     total cpu time spent up to now is      694.6 secs

     total energy              =     -77.19031030 Ry
     Harris-Foulkes estimate   =     -77.19052459 Ry
     estimated scf accuracy    <       0.00150859 Ry

     iteration #  5     ecut=    80.00 Ry     beta= 0.40
     Davidson diagonalization with overlap
     ethr =  2.96E-06,  avg # of iterations =  1.0

     negative rho (up, down):  4.687E-05 0.000E+00

     total cpu time spent up to now is      699.9 secs

     total energy              =     -77.19009487 Ry
     Harris-Foulkes estimate   =     -77.19041720 Ry
     estimated scf accuracy    <       0.00111872 Ry

     iteration #  6     ecut=    80.00 Ry     beta= 0.40
     Davidson diagonalization with overlap
     ethr =  2.19E-06,  avg # of iterations =  3.0

     negative rho (up, down):  4.689E-05 0.000E+00

     total cpu time spent up to now is      705.8 secs

     total energy              =     -77.19027932 Ry
     Harris-Foulkes estimate   =     -77.19035040 Ry
     estimated scf accuracy    <       0.00043227 Ry

     iteration #  7     ecut=    80.00 Ry     beta= 0.40
     Davidson diagonalization with overlap
     ethr =  8.48E-07,  avg # of iterations =  4.0

     negative rho (up, down):  4.713E-05 0.000E+00

     total cpu time spent up to now is      712.1 secs

     total energy              =     -77.19031134 Ry
     Harris-Foulkes estimate   =     -77.19033767 Ry
     estimated scf accuracy    <       0.00013979 Ry

     iteration #  8     ecut=    80.00 Ry     beta= 0.40
     Davidson diagonalization with overlap
     ethr =  2.74E-07,  avg # of iterations =  3.0

     negative rho (up, down):  4.737E-05 0.000E+00

     total cpu time spent up to now is      717.6 secs

     total energy              =     -77.19030056 Ry
     Harris-Foulkes estimate   =     -77.19031913 Ry
     estimated scf accuracy    <       0.00007072 Ry

     iteration #  9     ecut=    80.00 Ry     beta= 0.40
     Davidson diagonalization with overlap
     ethr =  1.39E-07,  avg # of iterations =  4.0

     negative rho (up, down):  4.749E-05 0.000E+00

     total cpu time spent up to now is      723.8 secs

     total energy              =     -77.19030635 Ry
     Harris-Foulkes estimate   =     -77.19031067 Ry
     estimated scf accuracy    <       0.00002000 Ry

     iteration # 10     ecut=    80.00 Ry     beta= 0.40
     Davidson diagonalization with overlap
     c_bands:  1 eigenvalues not converged
     ethr =  3.92E-08,  avg # of iterations = 20.0

     negative rho (up, down):  4.753E-05 0.000E+00

     total cpu time spent up to now is      733.2 secs

     total energy              =     -77.19090538 Ry
     Harris-Foulkes estimate   =     -77.19091063 Ry
     estimated scf accuracy    <       0.00041753 Ry

     iteration # 11     ecut=    80.00 Ry     beta= 0.40
     Davidson diagonalization with overlap
     ethr =  3.92E-08,  avg # of iterations =  1.0

     negative rho (up, down):  4.748E-05 0.000E+00

     total cpu time spent up to now is      738.5 secs

     total energy              =     -77.19091515 Ry
     Harris-Foulkes estimate   =     -77.19090575 Ry
     estimated scf accuracy    <       0.00039747 Ry

     iteration # 12     ecut=    80.00 Ry     beta= 0.40
     Davidson diagonalization with overlap
     ethr =  3.92E-08,  avg # of iterations =  1.0

     negative rho (up, down):  4.748E-05 0.000E+00

     total cpu time spent up to now is      743.9 secs

     total energy              =     -77.19093163 Ry
     Harris-Foulkes estimate   =     -77.19091589 Ry
     estimated scf accuracy    <       0.00042869 Ry

     iteration # 13     ecut=    80.00 Ry     beta= 0.40
     Davidson diagonalization with overlap
     ethr =  3.92E-08,  avg # of iterations =  1.0

     negative rho (up, down):  4.744E-05 0.000E+00

     total cpu time spent up to now is      749.3 secs

     total energy              =     -77.19095055 Ry
     Harris-Foulkes estimate   =     -77.19093217 Ry
     estimated scf accuracy    <       0.00050491 Ry

     iteration # 14     ecut=    80.00 Ry     beta= 0.40
     Davidson diagonalization with overlap
     ethr =  3.92E-08,  avg # of iterations =  1.0

     negative rho (up, down):  4.748E-05 0.000E+00

     total cpu time spent up to now is      755.0 secs

     total energy              =     -77.19092540 Ry
     Harris-Foulkes estimate   =     -77.19095123 Ry
     estimated scf accuracy    <       0.00058784 Ry

     iteration # 15     ecut=    80.00 Ry     beta= 0.40
     Davidson diagonalization with overlap
     ethr =  3.92E-08,  avg # of iterations =  1.0

     negative rho (up, down):  4.746E-05 0.000E+00

     total cpu time spent up to now is      760.3 secs

     total energy              =     -77.19093453 Ry
     Harris-Foulkes estimate   =     -77.19092606 Ry
     estimated scf accuracy    <       0.00048845 Ry

     iteration # 16     ecut=    80.00 Ry     beta= 0.40
     Davidson diagonalization with overlap
     ethr =  3.92E-08,  avg # of iterations =  1.0

     negative rho (up, down):  4.749E-05 0.000E+00

     total cpu time spent up to now is      765.7 secs

     total energy              =     -77.19092390 Ry
     Harris-Foulkes estimate   =     -77.19093464 Ry
     estimated scf accuracy    <       0.00052020 Ry

     iteration # 17     ecut=    80.00 Ry     beta= 0.40
     Davidson diagonalization with overlap
     ethr =  3.92E-08,  avg # of iterations =  1.0

     negative rho (up, down):  4.764E-05 0.000E+00

     total cpu time spent up to now is      771.2 secs

     total energy              =     -77.19083665 Ry
     Harris-Foulkes estimate   =     -77.19092408 Ry
     estimated scf accuracy    <       0.00047325 Ry

     iteration # 18     ecut=    80.00 Ry     beta= 0.40
     Davidson diagonalization with overlap
     ethr =  3.92E-08,  avg # of iterations =  5.0

     negative rho (up, down):  4.796E-05 0.000E+00

     total cpu time spent up to now is      779.0 secs

     total energy              =     -77.19080278 Ry
     Harris-Foulkes estimate   =     -77.19085271 Ry
     estimated scf accuracy    <       0.00011585 Ry

     iteration # 19     ecut=    80.00 Ry     beta= 0.40
     Davidson diagonalization with overlap
     ethr =  3.92E-08,  avg # of iterations =  5.0

     negative rho (up, down):  4.791E-05 0.000E+00

     total cpu time spent up to now is      787.7 secs

     total energy              =     -77.19082853 Ry
     Harris-Foulkes estimate   =     -77.19083604 Ry
     estimated scf accuracy    <       0.00003954 Ry

     iteration # 20     ecut=    80.00 Ry     beta= 0.40
     Davidson diagonalization with overlap
     ethr =  3.92E-08,  avg # of iterations =  1.0

     negative rho (up, down):  4.785E-05 0.000E+00

     total cpu time spent up to now is      793.4 secs

     total energy              =     -77.19082706 Ry
     Harris-Foulkes estimate   =     -77.19083000 Ry
     estimated scf accuracy    <       0.00001480 Ry

     iteration # 21     ecut=    80.00 Ry     beta= 0.40
     Davidson diagonalization with overlap
     ethr =  2.90E-08,  avg # of iterations =  4.0

     negative rho (up, down):  4.781E-05 0.000E+00

     total cpu time spent up to now is      799.6 secs

     total energy              =     -77.19082678 Ry
     Harris-Foulkes estimate   =     -77.19082806 Ry
     estimated scf accuracy    <       0.00000462 Ry

     iteration # 22     ecut=    80.00 Ry     beta= 0.40
     Davidson diagonalization with overlap
     ethr =  9.06E-09,  avg # of iterations =  5.0

     negative rho (up, down):  4.779E-05 0.000E+00

     total cpu time spent up to now is      806.2 secs

     End of self-consistent calculation

          k = 0.0000 0.0000 0.0000 (252395 PWs)   bands (ev):

    -9.9938  -9.1252  -9.1251  -9.1012  -8.9844  -8.9839  -8.4027  -7.4894
    -7.4326  -7.4323  -6.8936  -5.8297  -5.7773  -5.7773  -5.6603  -5.6601
    -4.8356  -4.8355  -4.1077  -3.9930  -3.3111  -3.2018  -3.2017  -3.1160
    -3.1158  -3.1038  -3.0913  -3.0423  -3.0419  -2.6450  -2.6448

     the Fermi energy is    -3.0627 ev

!    total energy              =     -77.19082740 Ry
     Harris-Foulkes estimate   =     -77.19082780 Ry
     estimated scf accuracy    <       0.00000053 Ry

     The total energy is the sum of the following terms:

     one-electron contribution =    -270.30345228 Ry
     hartree contribution      =     139.77350738 Ry
     xc contribution           =     -33.43079100 Ry
     ewald contribution        =      86.88100494 Ry
     smearing contrib. (-TS)   =      -0.11109644 Ry

     convergence has been achieved in  22 iterations

     negative rho (up, down):  4.779E-05 0.000E+00

     Forces acting on atoms (cartesian axes, Ry/au):

     atom    1 type  1   force =    -0.00916285    0.00529678    0.00000000
     atom    2 type  1   force =    -0.01981146   -0.00130652    0.00000000
     atom    3 type  1   force =     0.00000000   -0.01298680    0.00000000
     atom    4 type  1   force =     0.01112272   -0.01651887    0.00000000
     atom    5 type  1   force =     0.00000000   -0.01053261    0.00000000
     atom    6 type  1   force =    -0.01112272   -0.01651887    0.00000000
     atom    7 type  1   force =    -0.00481256   -0.00281521    0.00000000
     atom    8 type  1   force =    -0.00875568    0.01783272    0.00000000
     atom    9 type  1   force =     0.01123369    0.00647801    0.00000000
     atom   10 type  1   force =    -0.00000000    0.00002201    0.00000000
     atom   11 type  1   force =    -0.01123369    0.00647801    0.00000000
     atom   12 type  1   force =     0.01981146   -0.00130652    0.00000000
     atom   13 type  1   force =     0.00916285    0.00529678    0.00000000
     atom   14 type  1   force =    -0.00000000    0.00003206    0.00000000
     atom   15 type  1   force =     0.00481256   -0.00281521    0.00000000
     atom   16 type  1   force =     0.00875568    0.01783272    0.00000000
     atom   17 type  1   force =    -0.00000000    0.00553154    0.00000000

     Total force =     0.057477     Total SCF correction =     0.000548


     Computing stress (Cartesian axis) and pressure


     negative rho (up, down):  4.779E-05 0.000E+00
          total   stress  (Ry/bohr**3)                   (kbar)     P=   -1.92
  -0.00001951   0.00000000   0.00000000         -2.87      0.00      0.00
   0.00000000  -0.00001954   0.00000000          0.00     -2.87      0.00
  -0.00000000   0.00000000  -0.00000005         -0.00      0.00     -0.01


     number of scf cycles    =   7
     number of bfgs steps    =   6

     enthalpy old            =     -77.1828746795 Ry
     enthalpy new            =     -77.1908274009 Ry

     CASE: enthalpy_new < enthalpy_old

     new trust radius        =       0.2527425861 bohr
     new conv_thr            =       0.0000010000 Ry

     new unit-cell volume =  20527.93909 a.u.^3 (  3041.92669 Ang^3 )
     density =      0.27823 g/cm^3

CELL_PARAMETERS (alat= 25.26072511)
   0.991398174   0.000000000   0.000000000
  -0.495699087   0.858572049   0.000000000
   0.000000000   0.000000000   1.496177267

ATOMIC_POSITIONS (angstrom)
Al       1.883061400   1.463263081   0.000000000
Al       4.418252418   2.496469205   0.000000000
Al       6.626255103   1.376679071   0.000000000
Al      -2.162862244   6.404059605   0.000000000
Al       0.000031823   4.724421713   0.000000000
Al       2.162892324   6.404077644   0.000000000
Al       4.411818786   5.097403113   0.000000000
Al      -4.370425400  10.227827389   0.000000000
Al      -2.296520335   8.876028089   0.000000000
Al       0.000030661  10.201551967   0.000000000
Al       2.296615223   8.876046128   0.000000000
Al       8.834224223   2.496487245   0.000000000
Al      11.369448806   1.463299160   0.000000000
Al       6.626253941   6.376235707   0.000000000
Al       8.840722662   5.097421152   0.000000000
Al       4.370486721  10.227863467   0.000000000
Al       6.626286345   8.933515827   0.000000000



     Writing output data file 1al_planar_2x2_vcr.save/
     NEW-OLD atomic charge density approx. for the potential

     negative rho (up, down):  4.908E-05 0.000E+00
     extrapolated charge   50.64763, renormalised to   51.00000

     total cpu time spent up to now is      846.1 secs

     Self-consistent Calculation

     iteration #  1     ecut=    80.00 Ry     beta= 0.40
     Davidson diagonalization with overlap
     ethr =  1.00E-06,  avg # of iterations = 10.0

     negative rho (up, down):  4.966E-05 0.000E+00

     total cpu time spent up to now is      860.4 secs

     total energy              =     -77.18623706 Ry
     Harris-Foulkes estimate   =     -78.91213259 Ry
     estimated scf accuracy    <       0.01983385 Ry

     iteration #  2     ecut=    80.00 Ry     beta= 0.40
     Davidson diagonalization with overlap
     ethr =  3.89E-05,  avg # of iterations =  8.0

     negative rho (up, down):  4.882E-05 0.000E+00

     total cpu time spent up to now is      868.8 secs

     total energy              =     -77.18832558 Ry
     Harris-Foulkes estimate   =     -77.21666193 Ry
     estimated scf accuracy    <       0.17333141 Ry

     iteration #  3     ecut=    80.00 Ry     beta= 0.40
     Davidson diagonalization with overlap
     ethr =  3.89E-05,  avg # of iterations =  4.0

     negative rho (up, down):  4.833E-05 0.000E+00

     total cpu time spent up to now is      876.0 secs

     total energy              =     -77.19958875 Ry
     Harris-Foulkes estimate   =     -77.20020026 Ry
     estimated scf accuracy    <       0.00662900 Ry

     iteration #  4     ecut=    80.00 Ry     beta= 0.40
     Davidson diagonalization with overlap
     ethr =  1.30E-05,  avg # of iterations =  2.0

     negative rho (up, down):  4.596E-05 0.000E+00

     total cpu time spent up to now is      881.5 secs

     total energy              =     -77.19859487 Ry
     Harris-Foulkes estimate   =     -77.19976332 Ry
     estimated scf accuracy    <       0.00449695 Ry

     iteration #  5     ecut=    80.00 Ry     beta= 0.40
     Davidson diagonalization with overlap
     ethr =  8.82E-06,  avg # of iterations =  5.0

     negative rho (up, down):  4.514E-05 0.000E+00

     total cpu time spent up to now is      887.6 secs

     total energy              =     -77.19867002 Ry
     Harris-Foulkes estimate   =     -77.19929458 Ry
     estimated scf accuracy    <       0.00334687 Ry

     iteration #  6     ecut=    80.00 Ry     beta= 0.40
     Davidson diagonalization with overlap
     ethr =  6.56E-06,  avg # of iterations =  5.0

     negative rho (up, down):  4.550E-05 0.000E+00

     total cpu time spent up to now is      893.9 secs

     total energy              =     -77.19908673 Ry
     Harris-Foulkes estimate   =     -77.19913980 Ry
     estimated scf accuracy    <       0.00030321 Ry

     iteration #  7     ecut=    80.00 Ry     beta= 0.40
     Davidson diagonalization with overlap
     ethr =  5.95E-07,  avg # of iterations =  5.0

     negative rho (up, down):  4.575E-05 0.000E+00

     total cpu time spent up to now is      901.8 secs

     total energy              =     -77.19912086 Ry
     Harris-Foulkes estimate   =     -77.19916968 Ry
     estimated scf accuracy    <       0.00036922 Ry

     iteration #  8     ecut=    80.00 Ry     beta= 0.40
     Davidson diagonalization with overlap
     ethr =  5.95E-07,  avg # of iterations =  1.0

     negative rho (up, down):  4.601E-05 0.000E+00

     total cpu time spent up to now is      907.2 secs

     total energy              =     -77.19909758 Ry
     Harris-Foulkes estimate   =     -77.19912973 Ry
     estimated scf accuracy    <       0.00016218 Ry

     iteration #  9     ecut=    80.00 Ry     beta= 0.40
     Davidson diagonalization with overlap
     ethr =  3.18E-07,  avg # of iterations =  2.0

     negative rho (up, down):  4.617E-05 0.000E+00

     total cpu time spent up to now is      912.6 secs

     total energy              =     -77.19910182 Ry
     Harris-Foulkes estimate   =     -77.19911049 Ry
     estimated scf accuracy    <       0.00003794 Ry

     iteration # 10     ecut=    80.00 Ry     beta= 0.40
     Davidson diagonalization with overlap
     ethr =  7.44E-08,  avg # of iterations = 14.0

     negative rho (up, down):  4.622E-05 0.000E+00

     total cpu time spent up to now is      921.7 secs

     total energy              =     -77.19921540 Ry
     Harris-Foulkes estimate   =     -77.19921636 Ry
     estimated scf accuracy    <       0.00054039 Ry

     iteration # 11     ecut=    80.00 Ry     beta= 0.40
     Davidson diagonalization with overlap
     ethr =  7.44E-08,  avg # of iterations =  1.0

     negative rho (up, down):  4.624E-05 0.000E+00

     total cpu time spent up to now is      927.0 secs

     total energy              =     -77.19920737 Ry
     Harris-Foulkes estimate   =     -77.19921586 Ry
     estimated scf accuracy    <       0.00054040 Ry

     iteration # 12     ecut=    80.00 Ry     beta= 0.40
     Davidson diagonalization with overlap
     ethr =  7.44E-08,  avg # of iterations =  1.0

     negative rho (up, down):  4.637E-05 0.000E+00

     total cpu time spent up to now is      932.3 secs

     total energy              =     -77.19918843 Ry
     Harris-Foulkes estimate   =     -77.19920792 Ry
     estimated scf accuracy    <       0.00050585 Ry

     iteration # 13     ecut=    80.00 Ry     beta= 0.40
     Davidson diagonalization with overlap
     ethr =  7.44E-08,  avg # of iterations =  1.0

     negative rho (up, down):  4.629E-05 0.000E+00

     total cpu time spent up to now is      938.0 secs

     total energy              =     -77.19918622 Ry
     Harris-Foulkes estimate   =     -77.19918959 Ry
     estimated scf accuracy    <       0.00040545 Ry

     iteration # 14     ecut=    80.00 Ry     beta= 0.40
     Davidson diagonalization with overlap
     ethr =  7.44E-08,  avg # of iterations =  1.0

     negative rho (up, down):  4.627E-05 0.000E+00

     total cpu time spent up to now is      943.4 secs

     total energy              =     -77.19919826 Ry
     Harris-Foulkes estimate   =     -77.19918676 Ry
     estimated scf accuracy    <       0.00039687 Ry

     iteration # 15     ecut=    80.00 Ry     beta= 0.40
     Davidson diagonalization with overlap
     ethr =  7.44E-08,  avg # of iterations =  1.0

     negative rho (up, down):  4.625E-05 0.000E+00

     total cpu time spent up to now is      948.7 secs

     total energy              =     -77.19923532 Ry
     Harris-Foulkes estimate   =     -77.19919853 Ry
     estimated scf accuracy    <       0.00044489 Ry

     iteration # 16     ecut=    80.00 Ry     beta= 0.40
     Davidson diagonalization with overlap
     ethr =  7.44E-08,  avg # of iterations =  1.0

     negative rho (up, down):  4.625E-05 0.000E+00

     total cpu time spent up to now is      954.0 secs

     total energy              =     -77.19924493 Ry
     Harris-Foulkes estimate   =     -77.19923785 Ry
     estimated scf accuracy    <       0.00063297 Ry

     iteration # 17     ecut=    80.00 Ry     beta= 0.40
     Davidson diagonalization with overlap
     ethr =  7.44E-08,  avg # of iterations =  1.0

     negative rho (up, down):  4.641E-05 0.000E+00

     total cpu time spent up to now is      959.7 secs

     total energy              =     -77.19913227 Ry
     Harris-Foulkes estimate   =     -77.19924526 Ry
     estimated scf accuracy    <       0.00066635 Ry

     iteration # 18     ecut=    80.00 Ry     beta= 0.40
     Davidson diagonalization with overlap
     ethr =  7.44E-08,  avg # of iterations =  4.0

     negative rho (up, down):  4.661E-05 0.000E+00

     total cpu time spent up to now is      966.8 secs

     total energy              =     -77.19908189 Ry
     Harris-Foulkes estimate   =     -77.19914851 Ry
     estimated scf accuracy    <       0.00021046 Ry

     iteration # 19     ecut=    80.00 Ry     beta= 0.40
     Davidson diagonalization with overlap
     ethr =  7.44E-08,  avg # of iterations =  4.0

     negative rho (up, down):  4.652E-05 0.000E+00

     total cpu time spent up to now is      974.7 secs

     total energy              =     -77.19911178 Ry
     Harris-Foulkes estimate   =     -77.19911698 Ry
     estimated scf accuracy    <       0.00003862 Ry

     iteration # 20     ecut=    80.00 Ry     beta= 0.40
     Davidson diagonalization with overlap
     ethr =  7.44E-08,  avg # of iterations =  1.0

     negative rho (up, down):  4.639E-05 0.000E+00

     total cpu time spent up to now is      980.4 secs

     total energy              =     -77.19911057 Ry
[...]

   -11.3233 -10.4665 -10.2424  -9.6568  -9.4869  -9.1146  -8.7458  -7.7736
    -7.6668  -6.8152  -6.3233  -6.1315  -6.1221  -6.0433  -6.0419  -4.9625
    -4.8817  -4.6774  -4.3595  -4.2013  -3.9511  -3.7320  -3.6007  -3.2072
    -3.2037  -3.0294  -2.8242  -2.5238  -2.3417  -1.4807  -1.2612

     the Fermi energy is    -2.9857 ev

!    total energy              =     -77.81466958 Ry
     Harris-Foulkes estimate   =     -77.81466958 Ry
     estimated scf accuracy    <          1.8E-10 Ry

     The total energy is the sum of the following terms:

     one-electron contribution =    -352.34478379 Ry
     hartree contribution      =     181.10013302 Ry
     xc contribution           =     -34.71245179 Ry
     ewald contribution        =     128.16233314 Ry
     smearing contrib. (-TS)   =      -0.01990016 Ry

     convergence has been achieved in   3 iterations

     negative rho (up, down):  1.732E-05 0.000E+00

     Forces acting on atoms (cartesian axes, Ry/au):

     atom    1 type  1   force =     0.00000091   -0.00000112    0.00000000
     atom    2 type  1   force =    -0.00000269    0.00000149    0.00000000
     atom    3 type  1   force =     0.00000000    0.00000078    0.00000000
     atom    4 type  1   force =    -0.00000144    0.00000045    0.00000000
     atom    5 type  1   force =    -0.00000000   -0.00000184    0.00000000
     atom    6 type  1   force =     0.00000144    0.00000045    0.00000000
     atom    7 type  1   force =     0.00000205    0.00000085    0.00000000
     atom    8 type  1   force =    -0.00000182    0.00000001    0.00000000
     atom    9 type  1   force =    -0.00000077   -0.00000050    0.00000000
     atom   10 type  1   force =     0.00000000    0.00000010    0.00000000
     atom   11 type  1   force =     0.00000077   -0.00000050    0.00000000
     atom   12 type  1   force =     0.00000269    0.00000149    0.00000000
     atom   13 type  1   force =    -0.00000091   -0.00000112    0.00000000
     atom   14 type  1   force =     0.00000000    0.00000098    0.00000000
     atom   15 type  1   force =    -0.00000205    0.00000085    0.00000000
     atom   16 type  1   force =     0.00000182    0.00000001    0.00000000
     atom   17 type  1   force =    -0.00000000   -0.00000235    0.00000000

     Total force =     0.000008     Total SCF correction =     0.000011
     SCF correction compared to forces is large: reduce conv_thr to get better values


     Computing stress (Cartesian axis) and pressure


     negative rho (up, down):  1.732E-05 0.000E+00
          total   stress  (Ry/bohr**3)                   (kbar)     P=    0.00
   0.00000000   0.00000000  -0.00000000          0.00      0.00     -0.00
   0.00000000   0.00000000  -0.00000000          0.00      0.00     -0.00
   0.00000000   0.00000000  -0.00000000          0.00      0.00     -0.00


     bfgs converged in 135 scf cycles and 131 bfgs steps
     (criteria: energy <  1.0E-05 Ry, force <  1.0E-04Ry/Bohr, cell <  5.0E-05kbar)

     End of BFGS Geometry Optimization

     Final enthalpy =     -77.8146695759 Ry
Begin final coordinates
     new unit-cell volume =  15817.80618 a.u.^3 (  2343.95701 Ang^3 )
     density =      0.36108 g/cm^3

CELL_PARAMETERS (alat= 25.26072511)
   0.960874126  -0.000000000   0.000000000
  -0.480437063   0.682588961   0.000000000
   0.000000000   0.000000000   1.496177267

ATOMIC_POSITIONS (angstrom)
Al       2.202543588   1.914072537   0.000000000
Al       4.219730519   0.531135800   0.000000000
Al       6.422240072   1.892745902   0.000000000
Al      -2.161661491   4.538076443   0.000000000
Al       0.000030843   3.208843620   0.000000000
Al       2.161690645   4.538090785   0.000000000
Al       4.488536241   3.543920092   0.000000000
Al      -4.488463298   8.025696890   0.000000000
Al      -2.161632203   7.031580037   0.000000000
Al       0.000029717   8.360830455   0.000000000
Al       2.161724169   7.031594379   0.000000000
Al       8.624717093   0.531150142   0.000000000
Al      10.641936556   1.914101220   0.000000000
Al       6.422238946   5.784815412   0.000000000
Al       8.355974183   3.543934434   0.000000000
Al       4.488522732   8.025725574   0.000000000
Al       6.422270352   9.676930172   0.000000000
End final coordinates



     Writing output data file 1al_planar_2x2_vcr.save/

     A final scf calculation at the relaxed structure.
     The G-vectors are recalculated for the final unit cell
     Results may differ from those at the preceding step.
 
     Parallelization info
     --------------------
     sticks:   dense  smooth     PW     G-vecs:    dense   smooth      PW
     Min        1332    1332    332               191126   191126   23887
     Max        1336    1336    334               191127   191127   23889
     Sum       10663   10663   2663              1529009  1529009  191105
 


     bravais-lattice index     =            4
     lattice parameter (alat)  =      25.2607  a.u.
     unit-cell volume          =   15817.8062 (a.u.)^3
     number of atoms/cell      =           17
     number of atomic types    =            1
     number of electrons       =        51.00
     number of Kohn-Sham states=           31
     kinetic-energy cutoff     =      80.0000  Ry
     charge density cutoff     =     320.0000  Ry
     convergence threshold     =      1.0E-08
     mixing beta               =       0.4000
     number of iterations used =            8  plain     mixing
     Exchange-correlation      = PBE ( 1  4  3  4 0 0)

     celldm(1)=  25.260725  celldm(2)=   0.000000  celldm(3)=   1.496177
     celldm(4)=   0.000000  celldm(5)=   0.000000  celldm(6)=   0.000000

     crystal axes: (cart. coord. in units of alat)
               a(1) = (   0.960874  -0.000000   0.000000 )  
               a(2) = (  -0.480437   0.682589   0.000000 )  
               a(3) = (   0.000000   0.000000   1.496177 )  

     reciprocal axes: (cart. coord. in units 2 pi/alat)
               b(1) = (  1.040719  0.732505  0.000000 )  
               b(2) = (  0.000000  1.465011  0.000000 )  
               b(3) = (  0.000000  0.000000  0.668370 )  


     PseudoPot. # 1 for Al read from file:
     ./Al.upf
     MD5 check sum: 4974d48a734c9d7d1eb6780a1419d19d
     Pseudo is Norm-conserving + core correction, Zval =  3.0
     Generated using ONCVPSP code by D. R. Hamann
     Using radial grid of 1876 points,  6 beta functions with: 
                l(1) =   0
                l(2) =   0
                l(3) =   1
                l(4) =   1
                l(5) =   2
                l(6) =   2

     atomic species   valence    mass     pseudopotential
        Al             3.00    29.98200     Al( 1.00)

      4 Sym. Ops. (no inversion) found ( 2 have fractional translation)



   Cartesian axes

     site n.     atom                  positions (alat units)
         1           Al  tau(   1) = (   0.1647698   0.1431896   0.0000000  )
         2           Al  tau(   2) = (   0.3156732   0.0397337   0.0000000  )
         3           Al  tau(   3) = (   0.4804405   0.1415942   0.0000000  )
         4           Al  tau(   4) = (  -0.1617114   0.3394883   0.0000000  )
         5           Al  tau(   5) = (   0.0000023   0.2400499   0.0000000  )
         6           Al  tau(   6) = (   0.1617136   0.3394894   0.0000000  )
         7           Al  tau(   7) = (   0.3357823   0.2651166   0.0000000  )
         8           Al  tau(   8) = (  -0.3357768   0.6003933   0.0000000  )
         9           Al  tau(   9) = (  -0.1617092   0.5260245   0.0000000  )
        10           Al  tau(  10) = (   0.0000022   0.6254642   0.0000000  )
        11           Al  tau(  11) = (   0.1617161   0.5260256   0.0000000  )
        12           Al  tau(  12) = (   0.6452053   0.0397347   0.0000000  )
        13           Al  tau(  13) = (   0.7961112   0.1431917   0.0000000  )
        14           Al  tau(  14) = (   0.4804404   0.4327555   0.0000000  )
        15           Al  tau(  15) = (   0.6251009   0.2651177   0.0000000  )
        16           Al  tau(  16) = (   0.3357813   0.6003954   0.0000000  )
        17           Al  tau(  17) = (   0.4804427   0.7239201   0.0000000  )

     number of k points=     1  Methfessel-Paxton smearing, width (Ry)=  0.0500
                       cart. coord. in units 2pi/alat
        k(    1) = (   0.0000000   0.0000000   0.0000000), wk =   2.0000000

     Dense  grid:  1529009 G-vectors     FFT dimensions: ( 144, 125, 216)

     Estimated max dynamical RAM per process >     340.41 MB

     Estimated total dynamical RAM >       2.66 GB

     Initial potential from superposition of free atoms

     starting charge   50.95840, renormalised to   51.00000

     negative rho (up, down):  4.106E-05 0.000E+00
     Starting wfcs are   68 randomized atomic wfcs

     total cpu time spent up to now is    14848.6 secs

     Self-consistent Calculation

     iteration #  1     ecut=    80.00 Ry     beta= 0.40
     Davidson diagonalization with overlap
     c_bands:  1 eigenvalues not converged
     ethr =  1.00E-06,  avg # of iterations = 20.0

     negative rho (up, down):  1.373E-05 0.000E+00

     total cpu time spent up to now is    14865.7 secs

     total energy              =     -77.65692251 Ry
     Harris-Foulkes estimate   =     -78.03746446 Ry
     estimated scf accuracy    <       0.88314794 Ry

     iteration #  2     ecut=    80.00 Ry     beta= 0.40
     Davidson diagonalization with overlap
     ethr =  1.73E-03,  avg # of iterations =  3.0

     negative rho (up, down):  1.168E-05 0.000E+00

     total cpu time spent up to now is    14871.6 secs

     total energy              =     -77.67293180 Ry
     Harris-Foulkes estimate   =     -77.94409451 Ry
     estimated scf accuracy    <       0.87347803 Ry

     iteration #  3     ecut=    80.00 Ry     beta= 0.40
     Davidson diagonalization with overlap
     ethr =  1.71E-03,  avg # of iterations =  3.0

     negative rho (up, down):  1.450E-05 0.000E+00

     total cpu time spent up to now is    14877.2 secs

     total energy              =     -77.80104454 Ry
     Harris-Foulkes estimate   =     -77.82624749 Ry
     estimated scf accuracy    <       0.08279821 Ry

     iteration #  4     ecut=    80.00 Ry     beta= 0.40
     Davidson diagonalization with overlap
     ethr =  1.62E-04,  avg # of iterations =  3.0

     negative rho (up, down):  1.533E-05 0.000E+00

     total cpu time spent up to now is    14883.3 secs

     total energy              =     -77.80994252 Ry
     Harris-Foulkes estimate   =     -77.82268532 Ry
     estimated scf accuracy    <       0.05291252 Ry

     iteration #  5     ecut=    80.00 Ry     beta= 0.40
     Davidson diagonalization with overlap
     ethr =  1.04E-04,  avg # of iterations =  2.0

     negative rho (up, down):  1.621E-05 0.000E+00

     total cpu time spent up to now is    14888.3 secs

     total energy              =     -77.81182413 Ry
     Harris-Foulkes estimate   =     -77.81483969 Ry
     estimated scf accuracy    <       0.00980358 Ry

     iteration #  6     ecut=    80.00 Ry     beta= 0.40
     Davidson diagonalization with overlap
     ethr =  1.92E-05,  avg # of iterations =  4.0

     negative rho (up, down):  1.715E-05 0.000E+00

     total cpu time spent up to now is    14894.6 secs

     total energy              =     -77.81397390 Ry
     Harris-Foulkes estimate   =     -77.81515538 Ry
     estimated scf accuracy    <       0.00443346 Ry

     iteration #  7     ecut=    80.00 Ry     beta= 0.40
     Davidson diagonalization with overlap
     ethr =  8.69E-06,  avg # of iterations =  2.0

     negative rho (up, down):  1.718E-05 0.000E+00

     total cpu time spent up to now is    14899.8 secs

     total energy              =     -77.81445300 Ry
     Harris-Foulkes estimate   =     -77.81457552 Ry
     estimated scf accuracy    <       0.00045138 Ry

     iteration #  8     ecut=    80.00 Ry     beta= 0.40
     Davidson diagonalization with overlap
     ethr =  8.85E-07,  avg # of iterations =  3.0

     negative rho (up, down):  1.724E-05 0.000E+00

     total cpu time spent up to now is    14905.6 secs

     total energy              =     -77.81455160 Ry
     Harris-Foulkes estimate   =     -77.81455640 Ry
     estimated scf accuracy    <       0.00001714 Ry

     iteration #  9     ecut=    80.00 Ry     beta= 0.40
     Davidson diagonalization with overlap
     ethr =  3.36E-08,  avg # of iterations =  4.0

     negative rho (up, down):  1.726E-05 0.000E+00

     total cpu time spent up to now is    14912.7 secs

     total energy              =     -77.81455977 Ry
     Harris-Foulkes estimate   =     -77.81456162 Ry
     estimated scf accuracy    <       0.00000655 Ry

     iteration # 10     ecut=    80.00 Ry     beta= 0.40
     Davidson diagonalization with overlap
     ethr =  1.28E-08,  avg # of iterations =  3.0

     negative rho (up, down):  1.729E-05 0.000E+00

     total cpu time spent up to now is    14917.9 secs

     total energy              =     -77.81456068 Ry
     Harris-Foulkes estimate   =     -77.81456089 Ry
     estimated scf accuracy    <       0.00000124 Ry

     iteration # 11     ecut=    80.00 Ry     beta= 0.40
     Davidson diagonalization with overlap
     ethr =  2.43E-09,  avg # of iterations =  4.0

     negative rho (up, down):  1.730E-05 0.000E+00

     total cpu time spent up to now is    14923.8 secs

     total energy              =     -77.81456070 Ry
     Harris-Foulkes estimate   =     -77.81456094 Ry
     estimated scf accuracy    <       0.00000087 Ry

     iteration # 12     ecut=    80.00 Ry     beta= 0.40
     Davidson diagonalization with overlap
     ethr =  1.70E-09,  avg # of iterations =  2.0

     negative rho (up, down):  1.731E-05 0.000E+00

     total cpu time spent up to now is    14928.8 secs

     total energy              =     -77.81456071 Ry
     Harris-Foulkes estimate   =     -77.81456080 Ry
     estimated scf accuracy    <       0.00000022 Ry

     iteration # 13     ecut=    80.00 Ry     beta= 0.40
     Davidson diagonalization with overlap
     ethr =  4.26E-10,  avg # of iterations =  4.0

     negative rho (up, down):  1.731E-05 0.000E+00

     total cpu time spent up to now is    14935.3 secs

     total energy              =     -77.81456075 Ry
     Harris-Foulkes estimate   =     -77.81456079 Ry
     estimated scf accuracy    <       0.00000011 Ry

     iteration # 14     ecut=    80.00 Ry     beta= 0.40
     Davidson diagonalization with overlap
     ethr =  2.12E-10,  avg # of iterations =  2.0

     negative rho (up, down):  1.731E-05 0.000E+00

     total cpu time spent up to now is    14940.6 secs

     End of self-consistent calculation

          k = 0.0000 0.0000 0.0000 (191105 PWs)   bands (ev):

   -11.3235 -10.4667 -10.2426  -9.6571  -9.4871  -9.1148  -8.7461  -7.7738
    -7.6670  -6.8154  -6.3236  -6.1318  -6.1223  -6.0435  -6.0421  -4.9627
    -4.8819  -4.6775  -4.3598  -4.2015  -3.9513  -3.7321  -3.6008  -3.2075
    -3.2039  -3.0295  -2.8244  -2.5240  -2.3419  -1.4809  -1.1551

     the Fermi energy is    -2.9860 ev

!    total energy              =     -77.81456075 Ry
     Harris-Foulkes estimate   =     -77.81456076 Ry
     estimated scf accuracy    <          6.3E-09 Ry

     The total energy is the sum of the following terms:

     one-electron contribution =    -352.34404887 Ry
     hartree contribution      =     181.09958044 Ry
     xc contribution           =     -34.71238996 Ry
     ewald contribution        =     128.16233314 Ry
     smearing contrib. (-TS)   =      -0.02003551 Ry

     convergence has been achieved in  14 iterations

     negative rho (up, down):  1.731E-05 0.000E+00

     Forces acting on atoms (cartesian axes, Ry/au):

     atom    1 type  1   force =    -0.00000757   -0.00001861    0.00000000
     atom    2 type  1   force =     0.00000536    0.00002058    0.00000000
     atom    3 type  1   force =     0.00000000    0.00000001    0.00000000
     atom    4 type  1   force =    -0.00000053   -0.00001832    0.00000000
     atom    5 type  1   force =    -0.00000000   -0.00000749    0.00000000
     atom    6 type  1   force =     0.00000053   -0.00001832    0.00000000
     atom    7 type  1   force =     0.00000928   -0.00001384    0.00000000
     atom    8 type  1   force =    -0.00001053    0.00001447    0.00000000
     atom    9 type  1   force =     0.00000089    0.00001676    0.00000000
     atom   10 type  1   force =     0.00000000    0.00000481    0.00000000
     atom   11 type  1   force =    -0.00000089    0.00001676    0.00000000
     atom   12 type  1   force =    -0.00000536    0.00002058    0.00000000
     atom   13 type  1   force =     0.00000757   -0.00001861    0.00000000
     atom   14 type  1   force =    -0.00000000   -0.00000066    0.00000000
     atom   15 type  1   force =    -0.00000928   -0.00001384    0.00000000
     atom   16 type  1   force =     0.00001053    0.00001447    0.00000000
     atom   17 type  1   force =     0.00000000    0.00000127    0.00000000

     Total force =     0.000065     Total SCF correction =     0.000067
     SCF correction compared to forces is large: reduce conv_thr to get better values


     Computing stress (Cartesian axis) and pressure


     negative rho (up, down):  1.731E-05 0.000E+00
          total   stress  (Ry/bohr**3)                   (kbar)     P=   -0.00
   0.00000003   0.00000000   0.00000000          0.00      0.00      0.00
   0.00000000  -0.00000004   0.00000000          0.00     -0.01      0.00
  -0.00000000  -0.00000000  -0.00000001         -0.00     -0.00     -0.00


     Writing output data file 1al_planar_2x2_vcr.save/
 
     init_run     :     22.06s CPU     23.54s WALL (       2 calls)
     electrons    :   9193.03s CPU   9388.99s WALL (     136 calls)
     update_pot   :   1959.98s CPU   1970.93s WALL (     134 calls)
     forces       :   1165.92s CPU   1178.52s WALL (     136 calls)
     stress       :   2320.59s CPU   2352.18s WALL (     136 calls)

     Called by init_run:
     wfcinit      :      6.23s CPU      7.41s WALL (       2 calls)
     potinit      :      5.71s CPU      5.86s WALL (       2 calls)
     hinit0       :      8.77s CPU      8.86s WALL (       2 calls)

     Called by electrons:
     c_bands      :   7201.40s CPU   7285.30s WALL (    1269 calls)
     sum_band     :   1083.99s CPU   1095.91s WALL (    1269 calls)
     v_of_rho     :    779.79s CPU    844.88s WALL (    1372 calls)
     mix_rho      :    151.57s CPU    179.69s WALL (    1269 calls)

     Called by c_bands:
     init_us_2    :    113.37s CPU    114.35s WALL (    2540 calls)
     cegterg      :   6001.50s CPU   6080.05s WALL (    1269 calls)

     Called by sum_band:

     Called by *egterg:
     h_psi        :   5396.05s CPU   5461.42s WALL (    5979 calls)
     g_psi        :     27.87s CPU     28.04s WALL (    4708 calls)
     cdiaghg      :     14.72s CPU     14.90s WALL (    5810 calls)

     Called by h_psi:
     h_psi:pot    :   5386.03s CPU   5440.90s WALL (    5979 calls)
     h_psi:calbec :    608.51s CPU    610.36s WALL (    5979 calls)
     vloc_psi     :   4170.03s CPU   4221.40s WALL (    5979 calls)
     add_vuspsi   :    607.39s CPU    609.09s WALL (    5979 calls)

     General routines
     calbec       :    718.79s CPU    721.06s WALL (    6659 calls)
     fft          :    904.30s CPU    960.57s WALL (   17287 calls)
     ffts         :     50.07s CPU     50.62s WALL (    1269 calls)
     fftw         :   4605.71s CPU   4662.82s WALL (  268555 calls)
 
     Parallel routines
     fft_scatt_xy :    610.61s CPU    617.57s WALL (  287111 calls)
     fft_scatt_yz :   3038.08s CPU   3088.26s WALL (  287111 calls)
 
     PWSCF        :     4h 4m CPU        4h 4m WALL

       9h
 
   This run was terminated on:  16: 9:12  25Nov2020            

=------------------------------------------------------------------------------=
   JOB DONE.
=------------------------------------------------------------------------------=
