
     Program PWSCF v.6.3MaX starts on 25Nov2020 at 18:16:17 

     This program is part of the open-source Quantum ESPRESSO suite
     for quantum simulation of materials; please cite
         "P. Giannozzi et al., J. Phys.:Condens. Matter 21 395502 (2009);
         "P. Giannozzi et al., J. Phys.:Condens. Matter 29 465901 (2017);
          URL http://www.quantum-espresso.org", 
     in publications or presentations arising from this work. More details at
     http://www.quantum-espresso.org/quote

     Parallel version (MPI), running on     8 processors

     MPI processes distributed on     2 nodes
     R & G space division:  proc/nbgrp/npool/nimage =       8
     Waiting for input...
     Reading input from standard input

     Current dimensions of program PWSCF are:
     Max number of different atomic species (ntypx) = 10
     Max number of k-points (npk) =  40000
     Max angular momentum in pseudopotentials (lmaxx) =  3

     Subspace diagonalization in iterative solution of the eigenvalue problem:
     a serial algorithm will be used

 
     Parallelization info
     --------------------
     sticks:   dense  smooth     PW     G-vecs:    dense   smooth      PW
     Min        3123    3123    778               448599   448599   56048
     Max        3124    3124    779               448604   448604   56052
     Sum       24985   24985   6229              3588803  3588803  448403
 


     bravais-lattice index     =            4
     lattice parameter (alat)  =      33.6810  a.u.
     unit-cell volume          =   37130.3117 (a.u.)^3
     number of atoms/cell      =           31
     number of atomic types    =            1
     number of electrons       =        93.00
     number of Kohn-Sham states=           56
     kinetic-energy cutoff     =      80.0000  Ry
     charge density cutoff     =     320.0000  Ry
     convergence threshold     =      1.0E-06
     mixing beta               =       0.4000
     number of iterations used =            8  plain     mixing
     Exchange-correlation      = PBE ( 1  4  3  4 0 0)
     nstep                     =          300


     celldm(1)=  33.680967  celldm(2)=   0.000000  celldm(3)=   1.122133
     celldm(4)=   0.000000  celldm(5)=   0.000000  celldm(6)=   0.000000

     crystal axes: (cart. coord. in units of alat)
               a(1) = (   1.000000   0.000000   0.000000 )  
               a(2) = (  -0.500000   0.866025   0.000000 )  
               a(3) = (   0.000000   0.000000   1.122133 )  

     reciprocal axes: (cart. coord. in units 2 pi/alat)
               b(1) = (  1.000000  0.577350  0.000000 )  
               b(2) = (  0.000000  1.154701  0.000000 )  
               b(3) = (  0.000000  0.000000  0.891160 )  


     PseudoPot. # 1 for Al read from file:
     ./Al.upf
     MD5 check sum: 4974d48a734c9d7d1eb6780a1419d19d
     Pseudo is Norm-conserving + core correction, Zval =  3.0
     Generated using ONCVPSP code by D. R. Hamann
     Using radial grid of 1876 points,  6 beta functions with: 
                l(1) =   0
                l(2) =   0
                l(3) =   1
                l(4) =   1
                l(5) =   2
                l(6) =   2

     atomic species   valence    mass     pseudopotential
        Al             3.00    29.98200     Al( 1.00)

      4 Sym. Ops. (no inversion) found ( 2 have fractional translation)



   Cartesian axes

     site n.     atom                  positions (alat units)
         1           Al  tau(   1) = (  -0.0000000   0.1443393   0.0000000  )
         2           Al  tau(   2) = (  -0.1249997   0.3608472   0.0000000  )
         3           Al  tau(   3) = (   0.0000018   0.2886775   0.0000000  )
         4           Al  tau(   4) = (  -0.2499994   0.5773550   0.0000000  )
         5           Al  tau(   5) = (  -0.1249979   0.5051854   0.0000000  )
         6           Al  tau(   6) = (  -0.3749991   0.7938629   0.0000000  )
         7           Al  tau(   7) = (  -0.2499976   0.7216932   0.0000000  )
         8           Al  tau(   8) = (   0.2500011   0.1443403   0.0000000  )
         9           Al  tau(   9) = (   0.3750027   0.0721706   0.0000000  )
        10           Al  tau(  10) = (   0.1250014   0.3608482   0.0000000  )
        11           Al  tau(  11) = (   0.2500030   0.2886785   0.0000000  )
        12           Al  tau(  12) = (   0.0000017   0.5773560   0.0000000  )
        13           Al  tau(  13) = (   0.1250033   0.5051864   0.0000000  )
        14           Al  tau(  14) = (  -0.1249980   0.7938639   0.0000000  )
        15           Al  tau(  15) = (   0.0000036   0.7216942   0.0000000  )
        16           Al  tau(  16) = (   0.5000023   0.1443413   0.0000000  )
        17           Al  tau(  17) = (   0.6250038   0.0721717   0.0000000  )
        18           Al  tau(  18) = (   0.3750026   0.3608492   0.0000000  )
        19           Al  tau(  19) = (   0.5000041   0.2886795   0.0000000  )
        20           Al  tau(  20) = (   0.2500029   0.5773571   0.0000000  )
        21           Al  tau(  21) = (   0.3750044   0.5051874   0.0000000  )
        22           Al  tau(  22) = (   0.1250032   0.7938649   0.0000000  )
        23           Al  tau(  23) = (   0.2500047   0.7216953   0.0000000  )
        24           Al  tau(  24) = (   0.7500035   0.1443423   0.0000000  )
        25           Al  tau(  25) = (   0.8750050   0.0721727   0.0000000  )
        26           Al  tau(  26) = (   0.6250038   0.3608502   0.0000000  )
        27           Al  tau(  27) = (   0.7500053   0.2886805   0.0000000  )
        28           Al  tau(  28) = (   0.5000041   0.5773581   0.0000000  )
        29           Al  tau(  29) = (   0.6250056   0.5051884   0.0000000  )
        30           Al  tau(  30) = (   0.3750044   0.7938660   0.0000000  )
        31           Al  tau(  31) = (   0.5000059   0.7216963   0.0000000  )

     number of k points=     1  Methfessel-Paxton smearing, width (Ry)=  0.0500
                       cart. coord. in units 2pi/alat
        k(    1) = (   0.0000000   0.0000000   0.0000000), wk =   2.0000000

     Dense  grid:  3588803 G-vectors     FFT dimensions: ( 192, 192, 216)

     Estimated max dynamical RAM per process >       1.15 GB

     Estimated total dynamical RAM >       9.23 GB

     Initial potential from superposition of free atoms

     starting charge   92.92414, renormalised to   93.00000

     negative rho (up, down):  9.278E-05 0.000E+00
     Starting wfcs are  124 randomized atomic wfcs

     total cpu time spent up to now is       33.2 secs

     Self-consistent Calculation

     iteration #  1     ecut=    80.00 Ry     beta= 0.40
     Davidson diagonalization with overlap
     ethr =  1.00E-02,  avg # of iterations =  2.0

     negative rho (up, down):  1.127E-06 0.000E+00

     total cpu time spent up to now is       58.8 secs

     total energy              =    -140.64190805 Ry
     Harris-Foulkes estimate   =    -141.23595710 Ry
     estimated scf accuracy    <       1.54891131 Ry

     iteration #  2     ecut=    80.00 Ry     beta= 0.40
     Davidson diagonalization with overlap
     ethr =  1.67E-03,  avg # of iterations =  5.0

     negative rho (up, down):  4.947E-06 0.000E+00

     total cpu time spent up to now is       87.3 secs

     total energy              =    -140.21876208 Ry
     Harris-Foulkes estimate   =    -141.45923437 Ry
     estimated scf accuracy    <       6.75676234 Ry

     iteration #  3     ecut=    80.00 Ry     beta= 0.40
     Davidson diagonalization with overlap
     ethr =  1.67E-03,  avg # of iterations =  5.0

     negative rho (up, down):  4.592E-05 0.000E+00

     total cpu time spent up to now is      113.7 secs

     total energy              =    -140.82733069 Ry
     Harris-Foulkes estimate   =    -141.02208843 Ry
     estimated scf accuracy    <       1.16718425 Ry

     iteration #  4     ecut=    80.00 Ry     beta= 0.40
     Davidson diagonalization with overlap
     ethr =  1.26E-03,  avg # of iterations =  1.0

     negative rho (up, down):  7.209E-05 0.000E+00

     total cpu time spent up to now is      133.2 secs

     total energy              =    -140.89931690 Ry
     Harris-Foulkes estimate   =    -140.94417576 Ry
     estimated scf accuracy    <       0.15449835 Ry

     iteration #  5     ecut=    80.00 Ry     beta= 0.40
     Davidson diagonalization with overlap
     ethr =  1.66E-04,  avg # of iterations =  4.0

     negative rho (up, down):  8.136E-05 0.000E+00

     total cpu time spent up to now is      156.2 secs

     total energy              =    -140.91345877 Ry
     Harris-Foulkes estimate   =    -140.95568262 Ry
     estimated scf accuracy    <       0.29645817 Ry

     iteration #  6     ecut=    80.00 Ry     beta= 0.40
     Davidson diagonalization with overlap
     ethr =  1.66E-04,  avg # of iterations =  3.0

     negative rho (up, down):  1.049E-04 0.000E+00

     total cpu time spent up to now is      176.6 secs

     total energy              =    -140.93118056 Ry
     Harris-Foulkes estimate   =    -140.93393369 Ry
     estimated scf accuracy    <       0.01164941 Ry

     iteration #  7     ecut=    80.00 Ry     beta= 0.40
     Davidson diagonalization with overlap
     ethr =  1.25E-05,  avg # of iterations = 10.0

     negative rho (up, down):  1.228E-04 0.000E+00

     total cpu time spent up to now is      211.3 secs

     total energy              =    -140.93534551 Ry
     Harris-Foulkes estimate   =    -140.93749051 Ry
     estimated scf accuracy    <       0.01357473 Ry

     iteration #  8     ecut=    80.00 Ry     beta= 0.40
     Davidson diagonalization with overlap
     ethr =  1.25E-05,  avg # of iterations =  3.0

     negative rho (up, down):  1.304E-04 0.000E+00

     total cpu time spent up to now is      233.7 secs

     total energy              =    -140.93524374 Ry
     Harris-Foulkes estimate   =    -140.93705564 Ry
     estimated scf accuracy    <       0.01075116 Ry

     iteration #  9     ecut=    80.00 Ry     beta= 0.40
     Davidson diagonalization with overlap
     ethr =  1.16E-05,  avg # of iterations =  1.0

     negative rho (up, down):  1.325E-04 0.000E+00

     total cpu time spent up to now is      253.8 secs

     total energy              =    -140.93574748 Ry
     Harris-Foulkes estimate   =    -140.93623574 Ry
     estimated scf accuracy    <       0.00258926 Ry

     iteration # 10     ecut=    80.00 Ry     beta= 0.40
     Davidson diagonalization with overlap
     ethr =  2.78E-06,  avg # of iterations =  5.0

     negative rho (up, down):  1.338E-04 0.000E+00

     total cpu time spent up to now is      276.5 secs

     total energy              =    -140.93597208 Ry
     Harris-Foulkes estimate   =    -140.93608853 Ry
     estimated scf accuracy    <       0.00035484 Ry

     iteration # 11     ecut=    80.00 Ry     beta= 0.40
     Davidson diagonalization with overlap
     ethr =  3.82E-07,  avg # of iterations =  5.0

     negative rho (up, down):  1.359E-04 0.000E+00

     total cpu time spent up to now is      305.6 secs

     total energy              =    -140.93599858 Ry
     Harris-Foulkes estimate   =    -140.93623583 Ry
     estimated scf accuracy    <       0.00172724 Ry

     iteration # 12     ecut=    80.00 Ry     beta= 0.40
     Davidson diagonalization with overlap
     ethr =  3.82E-07,  avg # of iterations =  4.0

     negative rho (up, down):  1.370E-04 0.000E+00

     total cpu time spent up to now is      328.5 secs

     total energy              =    -140.93611004 Ry
     Harris-Foulkes estimate   =    -140.93611729 Ry
     estimated scf accuracy    <       0.00003702 Ry

     iteration # 13     ecut=    80.00 Ry     beta= 0.40
     Davidson diagonalization with overlap
     ethr =  3.98E-08,  avg # of iterations =  5.0

     negative rho (up, down):  1.377E-04 0.000E+00

     total cpu time spent up to now is      354.8 secs

     total energy              =    -140.93611423 Ry
     Harris-Foulkes estimate   =    -140.93612043 Ry
     estimated scf accuracy    <       0.00003336 Ry

     iteration # 14     ecut=    80.00 Ry     beta= 0.40
     Davidson diagonalization with overlap
     ethr =  3.59E-08,  avg # of iterations =  3.0

     negative rho (up, down):  1.379E-04 0.000E+00

     total cpu time spent up to now is      375.5 secs

     total energy              =    -140.93611708 Ry
     Harris-Foulkes estimate   =    -140.93611849 Ry
     estimated scf accuracy    <       0.00000802 Ry

     iteration # 15     ecut=    80.00 Ry     beta= 0.40
     Davidson diagonalization with overlap
     ethr =  8.62E-09,  avg # of iterations =  4.0

     negative rho (up, down):  1.380E-04 0.000E+00

     total cpu time spent up to now is      398.2 secs

     total energy              =    -140.93611768 Ry
     Harris-Foulkes estimate   =    -140.93611803 Ry
     estimated scf accuracy    <       0.00000144 Ry

     iteration # 16     ecut=    80.00 Ry     beta= 0.40
     Davidson diagonalization with overlap
     ethr =  1.55E-09,  avg # of iterations =  4.0

     negative rho (up, down):  1.381E-04 0.000E+00

     total cpu time spent up to now is      423.0 secs

     total energy              =    -140.93611757 Ry
     Harris-Foulkes estimate   =    -140.93611785 Ry
     estimated scf accuracy    <       0.00000135 Ry

     iteration # 17     ecut=    80.00 Ry     beta= 0.40
     Davidson diagonalization with overlap
     ethr =  1.45E-09,  avg # of iterations =  4.0

     negative rho (up, down):  1.382E-04 0.000E+00

     total cpu time spent up to now is      444.1 secs

     End of self-consistent calculation

          k = 0.0000 0.0000 0.0000 (448403 PWs)   bands (ev):

    -9.9529  -9.4486  -9.4330  -9.4325  -9.4261  -9.4256  -9.1458  -8.4050
    -8.4048  -8.3881  -8.3880  -8.3796  -8.3035  -8.2570  -8.2569  -7.5862
    -6.9325  -6.9324  -6.8235  -6.4865  -6.4773  -6.4771  -6.3701  -6.3699
    -5.4639  -4.8435  -4.8434  -4.8371  -4.7356  -4.7354  -4.4779  -4.4680
    -4.4430  -4.4430  -4.1225  -4.1222  -3.9779  -3.4715  -3.4687  -3.4684
    -3.4577  -3.4574  -3.4018  -3.2746  -3.2742  -3.2223  -3.2073  -2.9743
    -2.9653  -2.9652  -2.9388  -2.5200  -2.5196  -2.4494  -2.4475  -2.4313

     the Fermi energy is    -3.0910 ev

!    total energy              =    -140.93611682 Ry
     Harris-Foulkes estimate   =    -140.93611758 Ry
     estimated scf accuracy    <       0.00000081 Ry

     The total energy is the sum of the following terms:

     one-electron contribution =    -502.03596161 Ry
     hartree contribution      =     259.76328751 Ry
     xc contribution           =     -61.33576403 Ry
     ewald contribution        =     162.75328960 Ry
     smearing contrib. (-TS)   =      -0.08096829 Ry

     convergence has been achieved in  17 iterations

     negative rho (up, down):  1.382E-04 0.000E+00

     Forces acting on atoms (cartesian axes, Ry/au):

     atom    1 type  1   force =     0.01307915   -0.00760729    0.00000000
     atom    2 type  1   force =     0.00533780   -0.00121160    0.00000000
     atom    3 type  1   force =     0.00058956    0.00333945    0.00000000
     atom    4 type  1   force =     0.00161962    0.00522847    0.00000000
     atom    5 type  1   force =    -0.00200383   -0.00115691    0.00000000
     atom    6 type  1   force =    -0.00004853    0.01513052    0.00000000
     atom    7 type  1   force =     0.00318683   -0.00115915    0.00000000
     atom    8 type  1   force =    -0.01312096   -0.00757539    0.00000000
     atom    9 type  1   force =     0.00254063   -0.00216885    0.00000000
     atom   10 type  1   force =    -0.00002420   -0.00122748    0.00000000
     atom   11 type  1   force =    -0.00060796    0.00328467    0.00000000
     atom   12 type  1   force =    -0.00046791   -0.00027015    0.00000000
     atom   13 type  1   force =    -0.00005001    0.00123581    0.00000000
     atom   14 type  1   force =    -0.00107513    0.00059278    0.00000000
     atom   15 type  1   force =     0.00104524   -0.00066121    0.00000000
     atom   16 type  1   force =    -0.00363397   -0.00394194    0.00000000
     atom   17 type  1   force =    -0.00003519    0.00240640    0.00000000
     atom   18 type  1   force =    -0.00523081   -0.00117614    0.00000000
     atom   19 type  1   force =     0.00187609    0.00108316    0.00000000
     atom   20 type  1   force =     0.00046583   -0.00023530    0.00000000
     atom   21 type  1   force =     0.00206641   -0.00123367    0.00000000
     atom   22 type  1   force =     0.00002914    0.00052107    0.00000000
     atom   23 type  1   force =    -0.00114136   -0.00065896    0.00000000
     atom   24 type  1   force =     0.00370057   -0.00398585    0.00000000
     atom   25 type  1   force =    -0.00253773   -0.00215776    0.00000000
     atom   26 type  1   force =    -0.00000993   -0.00000573    0.00000000
     atom   27 type  1   force =    -0.00192472    0.00108469    0.00000000
     atom   28 type  1   force =    -0.00160156    0.00519772    0.00000000
     atom   29 type  1   force =    -0.00002299   -0.00220920    0.00000000
     atom   30 type  1   force =     0.00113749    0.00065673    0.00000000
     atom   31 type  1   force =    -0.00313754   -0.00111886    0.00000000

     Total force =     0.031197     Total SCF correction =     0.000740


     Computing stress (Cartesian axis) and pressure


     negative rho (up, down):  1.382E-04 0.000E+00
          total   stress  (Ry/bohr**3)                   (kbar)     P=   -0.57
  -0.00000577   0.00000003   0.00000000         -0.85      0.00      0.00
   0.00000003  -0.00000580   0.00000000          0.00     -0.85      0.00
   0.00000000   0.00000000   0.00000000          0.00      0.00      0.00


     BFGS Geometry Optimization

     number of scf cycles    =   1
     number of bfgs steps    =   0

     enthalpy new            =    -140.9361168219 Ry

     new trust radius        =       0.0151507787 bohr
     new conv_thr            =       0.0000010000 Ry

     new unit-cell volume =  37119.57308 a.u.^3 (  5500.55315 Ang^3 )
     density =      0.28059 g/cm^3

CELL_PARAMETERS (alat= 33.68096681)
   0.999855806   0.000000734   0.000000000
  -0.499927268   0.865899427   0.000000000
   0.000000000   0.000000000   1.122132950

ATOMIC_POSITIONS (angstrom)
Al       0.006921486   2.568189722   0.000000000
Al      -2.224745025   6.429875454   0.000000000
Al       0.000347806   5.146177174   0.000000000
Al      -4.454282877  10.291584674   0.000000000
Al      -2.228594921   9.002099921   0.000000000
Al      -6.682736057  14.155125623   0.000000000
Al      -4.453419102  12.860400512   0.000000000
Al       4.448237281   2.568228054   0.000000000
Al       6.684128972   1.284982421   0.000000000
Al       2.227596226   6.429888513   0.000000000
Al       4.454892489   5.146169655   0.000000000
Al      -0.000209102  10.288696811   0.000000000
Al       2.227617144   9.003387372   0.000000000
Al      -2.228100943  14.147455162   0.000000000
Al       0.000626075  12.860685435   0.000000000
Al       8.908435149   2.570171979   0.000000000
Al      11.137944400   1.287424649   0.000000000
Al       6.680019702   6.429937138   0.000000000
Al       8.911385099   5.145026298   0.000000000
Al       4.455463236  10.288736715   0.000000000
Al       6.683915233   9.002102232   0.000000000
Al       2.227661623  14.147438682   0.000000000
Al       4.454647439  12.860708084   0.000000000
Al      13.367494158   2.570170213   0.000000000
Al      15.591798596   1.285031211   0.000000000
Al      11.137960366   6.430577866   0.000000000
Al      13.364552377   5.145048567   0.000000000
Al       8.909547675  10.291632786   0.000000000
Al      11.137988022   9.001607540   0.000000000
Al       6.683426343  14.147531922   0.000000000
Al       8.908769552  12.860486216   0.000000000



     Writing output data file 2al_planar_2x2_vcr.save/
     NEW-OLD atomic charge density approx. for the potential

     negative rho (up, down):  1.382E-04 0.000E+00
     extrapolated charge   92.97312, renormalised to   93.00000

     total cpu time spent up to now is      527.9 secs

     Self-consistent Calculation

     iteration #  1     ecut=    80.00 Ry     beta= 0.40
     Davidson diagonalization with overlap
     ethr =  1.00E-06,  avg # of iterations =  4.0

     Threshold (ethr) on eigenvalues was too large:
     Diagonalizing with lowered threshold

     Davidson diagonalization with overlap
     ethr =  8.58E-08,  avg # of iterations =  4.0

     negative rho (up, down):  1.384E-04 0.000E+00

     total cpu time spent up to now is      577.3 secs

     total energy              =    -140.93705895 Ry
     Harris-Foulkes estimate   =    -141.07016611 Ry
     estimated scf accuracy    <       0.00012013 Ry

     iteration #  2     ecut=    80.00 Ry     beta= 0.40
     Davidson diagonalization with overlap
     ethr =  1.29E-07,  avg # of iterations =  5.0

     negative rho (up, down):  1.384E-04 0.000E+00

     total cpu time spent up to now is      605.3 secs

     total energy              =    -140.93698685 Ry
     Harris-Foulkes estimate   =    -140.93724736 Ry
     estimated scf accuracy    <       0.00200133 Ry

     iteration #  3     ecut=    80.00 Ry     beta= 0.40
     Davidson diagonalization with overlap
     ethr =  1.29E-07,  avg # of iterations =  5.0

     negative rho (up, down):  1.383E-04 0.000E+00

     total cpu time spent up to now is      630.7 secs

     total energy              =    -140.93711439 Ry
     Harris-Foulkes estimate   =    -140.93712095 Ry
     estimated scf accuracy    <       0.00002823 Ry

     iteration #  4     ecut=    80.00 Ry     beta= 0.40
     Davidson diagonalization with overlap
     ethr =  3.04E-08,  avg # of iterations =  4.0

     negative rho (up, down):  1.383E-04 0.000E+00

     total cpu time spent up to now is      653.3 secs

     total energy              =    -140.93711627 Ry
     Harris-Foulkes estimate   =    -140.93711959 Ry
     estimated scf accuracy    <       0.00001379 Ry

     iteration #  5     ecut=    80.00 Ry     beta= 0.40
     Davidson diagonalization with overlap
     ethr =  1.48E-08,  avg # of iterations =  4.0

     negative rho (up, down):  1.382E-04 0.000E+00

     total cpu time spent up to now is      675.3 secs

     total energy              =    -140.93711739 Ry
     Harris-Foulkes estimate   =    -140.93711985 Ry
     estimated scf accuracy    <       0.00001560 Ry

     iteration #  6     ecut=    80.00 Ry     beta= 0.40
     Davidson diagonalization with overlap
     ethr =  1.48E-08,  avg # of iterations =  1.0

     negative rho (up, down):  1.381E-04 0.000E+00

     total cpu time spent up to now is      694.3 secs

     End of self-consistent calculation

          k = 0.0000 0.0000 0.0000 (448403 PWs)   bands (ev):

    -9.9529  -9.4485  -9.4330  -9.4326  -9.4251  -9.4248  -9.1434  -8.4038
    -8.4035  -8.3841  -8.3839  -8.3822  -8.3046  -8.2541  -8.2539  -7.5844
    -6.9319  -6.9318  -6.8227  -6.4817  -6.4773  -6.4770  -6.3718  -6.3715
    -5.4688  -4.8392  -4.8391  -4.8348  -4.7360  -4.7358  -4.4762  -4.4669
    -4.4428  -4.4427  -4.1247  -4.1244  -3.9777  -3.4712  -3.4673  -3.4669
    -3.4581  -3.4578  -3.3995  -3.2729  -3.2725  -3.2207  -3.2169  -2.9697
    -2.9630  -2.9629  -2.9407  -2.5168  -2.5165  -2.4458  -2.4443  -2.4333

     the Fermi energy is    -3.0903 ev

!    total energy              =    -140.93711845 Ry
     Harris-Foulkes estimate   =    -140.93711876 Ry
     estimated scf accuracy    <       0.00000097 Ry

     The total energy is the sum of the following terms:

     one-electron contribution =    -502.12227864 Ry
     hartree contribution      =     259.80422639 Ry
     xc contribution           =     -61.33336498 Ry
     ewald contribution        =     162.79492833 Ry
     smearing contrib. (-TS)   =      -0.08062955 Ry

     convergence has been achieved in   6 iterations

     negative rho (up, down):  1.381E-04 0.000E+00

     Forces acting on atoms (cartesian axes, Ry/au):

     atom    1 type  1   force =     0.01294061   -0.00752266    0.00000000
     atom    2 type  1   force =     0.00446561   -0.00120078    0.00000000
     atom    3 type  1   force =     0.00068977    0.00202006    0.00000000
     atom    4 type  1   force =     0.00119290    0.00446773    0.00000000
     atom    5 type  1   force =    -0.00195726   -0.00113003    0.00000000
     atom    6 type  1   force =    -0.00004451    0.01496823    0.00000000
     atom    7 type  1   force =     0.00209431   -0.00041267    0.00000000
     atom    8 type  1   force =    -0.01296394   -0.00748473    0.00000000
     atom    9 type  1   force =     0.00139301   -0.00159649    0.00000000
     atom   10 type  1   force =    -0.00000250   -0.00086106    0.00000000
     atom   11 type  1   force =    -0.00068610    0.00200463    0.00000000
     atom   12 type  1   force =    -0.00064285   -0.00037115    0.00000000
     atom   13 type  1   force =    -0.00004352    0.00097088    0.00000000
     atom   14 type  1   force =    -0.00074695    0.00042837    0.00000000
     atom   15 type  1   force =     0.00081905   -0.00052313    0.00000000
     atom   16 type  1   force =    -0.00321387   -0.00323806    0.00000000
     atom   17 type  1   force =    -0.00003403    0.00233694    0.00000000
     atom   18 type  1   force =    -0.00441118   -0.00116426    0.00000000
     atom   19 type  1   force =     0.00135702    0.00078348    0.00000000
     atom   20 type  1   force =     0.00066049   -0.00035915    0.00000000
     atom   21 type  1   force =     0.00200683   -0.00119794    0.00000000
     atom   22 type  1   force =     0.00001921    0.00075158    0.00000000
     atom   23 type  1   force =    -0.00090164   -0.00052056    0.00000000
     atom   24 type  1   force =     0.00324827   -0.00325956    0.00000000
     atom   25 type  1   force =    -0.00136294   -0.00159279    0.00000000
     atom   26 type  1   force =    -0.00001292   -0.00000746    0.00000000
     atom   27 type  1   force =    -0.00140425    0.00077991    0.00000000
     atom   28 type  1   force =    -0.00119873    0.00444286    0.00000000
     atom   29 type  1   force =    -0.00002671   -0.00160607    0.00000000
     atom   30 type  1   force =     0.00082767    0.00047786    0.00000000
     atom   31 type  1   force =    -0.00206087   -0.00038395    0.00000000

     Total force =     0.029266     Total SCF correction =     0.000585


     Computing stress (Cartesian axis) and pressure


     negative rho (up, down):  1.381E-04 0.000E+00
          total   stress  (Ry/bohr**3)                   (kbar)     P=   -0.58
  -0.00000590   0.00000003   0.00000000         -0.87      0.00      0.00
   0.00000003  -0.00000594   0.00000000          0.00     -0.87      0.00
   0.00000000   0.00000000  -0.00000007          0.00      0.00     -0.01


     number of scf cycles    =   2
     number of bfgs steps    =   1

     enthalpy old            =    -140.9361168219 Ry
     enthalpy new            =    -140.9371184461 Ry

     CASE: enthalpy_new < enthalpy_old


     WARNING: bfgs curvature condition failed, Theta= 0.854
     new trust radius        =       0.0227229008 bohr
     new conv_thr            =       0.0000010000 Ry

     new unit-cell volume =  37103.11542 a.u.^3 (  5498.11438 Ang^3 )
     density =      0.28071 g/cm^3

CELL_PARAMETERS (alat= 33.68096681)
   0.999634755   0.000001817   0.000000000
  -0.499815803   0.865706366   0.000000000
   0.000000000   0.000000000   1.122132950

ATOMIC_POSITIONS (angstrom)
Al       0.017309509   2.561579436   0.000000000
Al      -2.220406251   6.427480290   0.000000000
Al       0.000873594   5.147056817   0.000000000
Al      -4.452201106  10.293098748   0.000000000
Al      -2.229671399   8.999184424   0.000000000
Al      -6.681280073  14.163986057   0.000000000
Al      -4.450407767  12.856975043   0.000000000
Al       4.436845458   2.561650974   0.000000000
Al       6.684121950   1.283250371   0.000000000
Al       2.227101982   6.427659447   0.000000000
Al       4.453388979   5.147029590   0.000000000
Al      -0.000657511  10.286143921   0.000000000
Al       2.227097616   9.002246223   0.000000000
Al      -2.228291837  14.144700662   0.000000000
Al       0.001364702  12.857365089   0.000000000
Al       8.903769212   2.566803654   0.000000000
Al      11.135455828   1.289040003   0.000000000
Al       6.674769686   6.427580459   0.000000000
Al       8.910666186   5.144611225   0.000000000
Al       4.454956951  10.286205327   0.000000000
Al       6.684069884   8.999139373   0.000000000
Al       2.227202897  14.144824911   0.000000000
Al       4.452881489  12.857394512   0.000000000
Al      13.367278302   2.566782599   0.000000000
Al      15.586899177   1.283314049   0.000000000
Al      11.135495521   6.429154771   0.000000000
Al      13.360319427   5.144637038   0.000000000
Al       8.906505995  10.293139627   0.000000000
Al      11.135515159   8.998147443   0.000000000
Al       6.682721737  14.144831109   0.000000000
Al       8.904832736  12.857101752   0.000000000



     Writing output data file 2al_planar_2x2_vcr.save/
     NEW-OLD atomic charge density approx. for the potential

     negative rho (up, down):  1.381E-04 0.000E+00
     extrapolated charge   92.95878, renormalised to   93.00000

     total cpu time spent up to now is      776.9 secs

     Self-consistent Calculation

     iteration #  1     ecut=    80.00 Ry     beta= 0.40
     Davidson diagonalization with overlap
     ethr =  1.00E-06,  avg # of iterations =  4.0

     negative rho (up, down):  1.384E-04 0.000E+00

     total cpu time spent up to now is      807.7 secs

     total energy              =    -140.93842062 Ry
     Harris-Foulkes estimate   =    -141.14251740 Ry
     estimated scf accuracy    <       0.00011705 Ry

     iteration #  2     ecut=    80.00 Ry     beta= 0.40
     Davidson diagonalization with overlap
     ethr =  1.26E-07,  avg # of iterations = 15.0

     negative rho (up, down):  1.383E-04 0.000E+00

     total cpu time spent up to now is      843.4 secs

     total energy              =    -140.93837543 Ry
     Harris-Foulkes estimate   =    -140.93853329 Ry
     estimated scf accuracy    <       0.00107867 Ry

     iteration #  3     ecut=    80.00 Ry     beta= 0.40
     Davidson diagonalization with overlap
     ethr =  1.26E-07,  avg # of iterations =  4.0

     negative rho (up, down):  1.383E-04 0.000E+00

     total cpu time spent up to now is      868.1 secs

     total energy              =    -140.93845210 Ry
     Harris-Foulkes estimate   =    -140.93846512 Ry
     estimated scf accuracy    <       0.00007551 Ry

     iteration #  4     ecut=    80.00 Ry     beta= 0.40
     Davidson diagonalization with overlap
     ethr =  8.12E-08,  avg # of iterations =  1.0

     negative rho (up, down):  1.382E-04 0.000E+00

     total cpu time spent up to now is      887.5 secs

     total energy              =    -140.93845302 Ry
     Harris-Foulkes estimate   =    -140.93845790 Ry
     estimated scf accuracy    <       0.00001936 Ry

     iteration #  5     ecut=    80.00 Ry     beta= 0.40
     Davidson diagonalization with overlap
     ethr =  2.08E-08,  avg # of iterations =  5.0

     negative rho (up, down):  1.381E-04 0.000E+00

     total cpu time spent up to now is      913.4 secs

     total energy              =    -140.93845279 Ry
     Harris-Foulkes estimate   =    -140.93845970 Ry
     estimated scf accuracy    <       0.00004317 Ry

     iteration #  6     ecut=    80.00 Ry     beta= 0.40
     Davidson diagonalization with overlap
     ethr =  2.08E-08,  avg # of iterations =  4.0

     negative rho (up, down):  1.381E-04 0.000E+00

     total cpu time spent up to now is      937.7 secs

     total energy              =    -140.93845638 Ry
     Harris-Foulkes estimate   =    -140.93845733 Ry
     estimated scf accuracy    <       0.00000563 Ry

     iteration #  7     ecut=    80.00 Ry     beta= 0.40
     Davidson diagonalization with overlap
     ethr =  6.06E-09,  avg # of iterations =  3.0

     negative rho (up, down):  1.381E-04 0.000E+00

     total cpu time spent up to now is      965.7 secs

     total energy              =    -140.93845674 Ry
     Harris-Foulkes estimate   =    -140.93845720 Ry
     estimated scf accuracy    <       0.00000252 Ry

     iteration #  8     ecut=    80.00 Ry     beta= 0.40
     Davidson diagonalization with overlap
     ethr =  2.70E-09,  avg # of iterations =  3.0

     negative rho (up, down):  1.381E-04 0.000E+00

     total cpu time spent up to now is      987.4 secs

     total energy              =    -140.93845700 Ry
     Harris-Foulkes estimate   =    -140.93845723 Ry
     estimated scf accuracy    <       0.00000182 Ry

     iteration #  9     ecut=    80.00 Ry     beta= 0.40
     Davidson diagonalization with overlap
     ethr =  1.96E-09,  avg # of iterations =  1.0

     negative rho (up, down):  1.380E-04 0.000E+00

     total cpu time spent up to now is     1006.1 secs

     End of self-consistent calculation

          k = 0.0000 0.0000 0.0000 (448403 PWs)   bands (ev):

    -9.9542  -9.4498  -9.4359  -9.4351  -9.4234  -9.4231  -9.1416  -8.4050
    -8.4032  -8.3853  -8.3801  -8.3800  -8.3077  -8.2508  -8.2499  -7.5843
    -6.9325  -6.9322  -6.8230  -6.4785  -6.4777  -6.4760  -6.3748  -6.3748
    -5.4768  -4.8348  -4.8345  -4.8334  -4.7376  -4.7372  -4.4754  -4.4665
    -4.4436  -4.4433  -4.1287  -4.1284  -3.9783  -3.4719  -3.4666  -3.4662
    -3.4589  -3.4582  -3.3969  -3.2722  -3.2714  -3.2324  -3.2197  -2.9653
    -2.9612  -2.9609  -2.9432  -2.5142  -2.5136  -2.4468  -2.4416  -2.4408

     the Fermi energy is    -3.0907 ev

!    total energy              =    -140.93845714 Ry
     Harris-Foulkes estimate   =    -140.93845713 Ry
     estimated scf accuracy    <       0.00000010 Ry

     The total energy is the sum of the following terms:

     one-electron contribution =    -502.25963452 Ry
     hartree contribution      =     259.87349080 Ry
     xc contribution           =     -61.33131553 Ry
     ewald contribution        =     162.85937898 Ry
     smearing contrib. (-TS)   =      -0.08037687 Ry

     convergence has been achieved in   9 iterations

     negative rho (up, down):  1.380E-04 0.000E+00

     Forces acting on atoms (cartesian axes, Ry/au):

     atom    1 type  1   force =     0.01288572   -0.00728709    0.00000000
     atom    2 type  1   force =     0.00361943   -0.00113787    0.00000000
     atom    3 type  1   force =     0.00058589    0.00026797    0.00000000
     atom    4 type  1   force =     0.00082429    0.00370345    0.00000000
     atom    5 type  1   force =    -0.00190463   -0.00109964    0.00000000
     atom    6 type  1   force =     0.00013206    0.01480290    0.00000000
     atom    7 type  1   force =     0.00052501    0.00037341    0.00000000
     atom    8 type  1   force =    -0.01281133   -0.00739662    0.00000000
     atom    9 type  1   force =     0.00004204   -0.00060163    0.00000000
     atom   10 type  1   force =    -0.00003144   -0.00037724    0.00000000
     atom   11 type  1   force =    -0.00050001    0.00033722    0.00000000
     atom   12 type  1   force =    -0.00089752   -0.00051818    0.00000000
     atom   13 type  1   force =     0.00003000    0.00077679    0.00000000
     atom   14 type  1   force =    -0.00034242    0.00016139    0.00000000
     atom   15 type  1   force =     0.00068772   -0.00036241    0.00000000
     atom   16 type  1   force =    -0.00289056   -0.00237318    0.00000000
     atom   17 type  1   force =     0.00008944    0.00238667    0.00000000
     atom   18 type  1   force =    -0.00350051   -0.00131671    0.00000000
     atom   19 type  1   force =     0.00071652    0.00041369    0.00000000
     atom   20 type  1   force =     0.00070905   -0.00047417    0.00000000
     atom   21 type  1   force =     0.00211164   -0.00111587    0.00000000
     atom   22 type  1   force =    -0.00005611    0.00085114    0.00000000
     atom   23 type  1   force =    -0.00061725   -0.00035637    0.00000000
     atom   24 type  1   force =     0.00271534   -0.00243291    0.00000000
     atom   25 type  1   force =    -0.00003487   -0.00080027    0.00000000
     atom   26 type  1   force =    -0.00001769   -0.00001022    0.00000000
     atom   27 type  1   force =    -0.00087430    0.00036826    0.00000000
     atom   28 type  1   force =    -0.00074929    0.00356801    0.00000000
     atom   29 type  1   force =    -0.00011823   -0.00094129    0.00000000
     atom   30 type  1   force =     0.00038248    0.00022083    0.00000000
     atom   31 type  1   force =    -0.00071049    0.00036994    0.00000000

     Total force =     0.027691     Total SCF correction =     0.000120


     Computing stress (Cartesian axis) and pressure


     negative rho (up, down):  1.380E-04 0.000E+00
          total   stress  (Ry/bohr**3)                   (kbar)     P=   -0.60
  -0.00000610  -0.00000000   0.00000000         -0.90     -0.00      0.00
  -0.00000000  -0.00000609   0.00000000         -0.00     -0.90      0.00
  -0.00000000  -0.00000000   0.00000001         -0.00     -0.00      0.00


     number of scf cycles    =   3
     number of bfgs steps    =   2

     enthalpy old            =    -140.9371184461 Ry
     enthalpy new            =    -140.9384571435 Ry

     CASE: enthalpy_new < enthalpy_old

     new trust radius        =       0.0340768370 bohr
     new conv_thr            =       0.0000010000 Ry

     new unit-cell volume =  37077.90030 a.u.^3 (  5494.37789 Ang^3 )
     density =      0.28090 g/cm^3

CELL_PARAMETERS (alat= 33.68096681)
   0.999295382   0.000002438   0.000000000
  -0.499645580   0.865411530   0.000000000
   0.000000000   0.000000000   1.122132950

ATOMIC_POSITIONS (angstrom)
Al       0.032945288   2.551752879   0.000000000
Al      -2.214375000   6.423881473   0.000000000
Al       0.001583772   5.147251352   0.000000000
Al      -4.449268201  10.294866411   0.000000000
Al      -2.231257850   8.994765187   0.000000000
Al      -6.678938295  14.177185349   0.000000000
Al      -4.446850269  12.852237853   0.000000000
Al       4.419729287   2.551768935   0.000000000
Al       6.683224907   1.281265740   0.000000000
Al       2.226315520   6.424570026   0.000000000
Al       4.451221717   5.147245032   0.000000000
Al      -0.001506271  10.282150577   0.000000000
Al       2.226341341   9.000364769   0.000000000
Al      -2.228326639  14.140309302   0.000000000
Al       0.002391124  12.852395901   0.000000000
Al       8.896868800   2.562245360   0.000000000
Al      11.131718774   1.291497246   0.000000000
Al       6.667371892   6.423883644   0.000000000
Al       8.909120992   5.143719095   0.000000000
Al       4.454176379  10.282263265   0.000000000
Al       6.684329392   8.994674344   0.000000000
Al       2.226432642  14.140864966   0.000000000
Al       4.450356448  12.852433367   0.000000000
Al      13.366536610   2.562163124   0.000000000
Al      15.580242969   1.281205282   0.000000000
Al      11.131701812   6.426964447   0.000000000
Al      13.354176975   5.143717515   0.000000000
Al       8.902134577  10.294806998   0.000000000
Al      11.131647613   8.993287654   0.000000000
Al       6.681321629  14.140519431   0.000000000
Al       8.899678386  12.852391654   0.000000000



     Writing output data file 2al_planar_2x2_vcr.save/
     NEW-OLD atomic charge density approx. for the potential

     negative rho (up, down):  1.381E-04 0.000E+00
     extrapolated charge   92.93681, renormalised to   93.00000

     total cpu time spent up to now is     1087.3 secs

     Self-consistent Calculation

     iteration #  1     ecut=    80.00 Ry     beta= 0.40
     Davidson diagonalization with overlap
     ethr =  1.00E-06,  avg # of iterations =  5.0

     negative rho (up, down):  1.385E-04 0.000E+00

     total cpu time spent up to now is     1120.2 secs

     total energy              =    -140.94024151 Ry
     Harris-Foulkes estimate   =    -141.25328263 Ry
     estimated scf accuracy    <       0.00017349 Ry

     iteration #  2     ecut=    80.00 Ry     beta= 0.40
     Davidson diagonalization with overlap
     ethr =  1.87E-07,  avg # of iterations =  5.0

     negative rho (up, down):  1.384E-04 0.000E+00

     total cpu time spent up to now is     1149.5 secs

     total energy              =    -140.94024906 Ry
     Harris-Foulkes estimate   =    -140.94044866 Ry
     estimated scf accuracy    <       0.00145065 Ry

     iteration #  3     ecut=    80.00 Ry     beta= 0.40
     Davidson diagonalization with overlap
     ethr =  1.87E-07,  avg # of iterations =  4.0

     negative rho (up, down):  1.383E-04 0.000E+00

     total cpu time spent up to now is     1172.4 secs

     total energy              =    -140.94034035 Ry
     Harris-Foulkes estimate   =    -140.94035341 Ry
     estimated scf accuracy    <       0.00005964 Ry

     iteration #  4     ecut=    80.00 Ry     beta= 0.40
     Davidson diagonalization with overlap
     ethr =  6.41E-08,  avg # of iterations =  3.0

     negative rho (up, down):  1.382E-04 0.000E+00

     total cpu time spent up to now is     1192.1 secs

     total energy              =    -140.94034115 Ry
     Harris-Foulkes estimate   =    -140.94034694 Ry
     estimated scf accuracy    <       0.00002358 Ry

     iteration #  5     ecut=    80.00 Ry     beta= 0.40
     Davidson diagonalization with overlap
     ethr =  2.54E-08,  avg # of iterations =  4.0

     negative rho (up, down):  1.381E-04 0.000E+00

     total cpu time spent up to now is     1214.9 secs

     total energy              =    -140.94033776 Ry
     Harris-Foulkes estimate   =    -140.94035148 Ry
     estimated scf accuracy    <       0.00009018 Ry

     iteration #  6     ecut=    80.00 Ry     beta= 0.40
     Davidson diagonalization with overlap
     ethr =  2.54E-08,  avg # of iterations =  4.0

     negative rho (up, down):  1.380E-04 0.000E+00

     total cpu time spent up to now is     1236.9 secs

     total energy              =    -140.94034480 Ry
     Harris-Foulkes estimate   =    -140.94034603 Ry
     estimated scf accuracy    <       0.00000739 Ry

     iteration #  7     ecut=    80.00 Ry     beta= 0.40
     Davidson diagonalization with overlap
     ethr =  7.95E-09,  avg # of iterations =  5.0

     negative rho (up, down):  1.380E-04 0.000E+00

     total cpu time spent up to now is     1258.9 secs

     total energy              =    -140.94034551 Ry
     Harris-Foulkes estimate   =    -140.94034591 Ry
     estimated scf accuracy    <       0.00000248 Ry

     iteration #  8     ecut=    80.00 Ry     beta= 0.40
     Davidson diagonalization with overlap
     ethr =  2.66E-09,  avg # of iterations =  3.0

     negative rho (up, down):  1.380E-04 0.000E+00

     total cpu time spent up to now is     1280.7 secs

     total energy              =    -140.94034580 Ry
     Harris-Foulkes estimate   =    -140.94034596 Ry
     estimated scf accuracy    <       0.00000113 Ry

     iteration #  9     ecut=    80.00 Ry     beta= 0.40
     Davidson diagonalization with overlap
     ethr =  1.22E-09,  avg # of iterations =  3.0

     negative rho (up, down):  1.379E-04 0.000E+00

     total cpu time spent up to now is     1302.3 secs

     total energy              =    -140.94034585 Ry
     Harris-Foulkes estimate   =    -140.94034599 Ry
     estimated scf accuracy    <       0.00000103 Ry

     iteration # 10     ecut=    80.00 Ry     beta= 0.40
     Davidson diagonalization with overlap
     ethr =  1.11E-09,  avg # of iterations =  1.0

     negative rho (up, down):  1.379E-04 0.000E+00

     total cpu time spent up to now is     1321.2 secs

     End of self-consistent calculation

          k = 0.0000 0.0000 0.0000 (448403 PWs)   bands (ev):

    -9.9552  -9.4506  -9.4390  -9.4384  -9.4203  -9.4202  -9.1383  -8.4036
    -8.4023  -8.3905  -8.3743  -8.3743  -8.3104  -8.2447  -8.2440  -7.5822
    -6.9325  -6.9322  -6.8230  -6.4787  -6.4778  -6.4681  -6.3779  -6.3779
    -5.4883  -4.8296  -4.8275  -4.8272  -4.7380  -4.7377  -4.4726  -4.4645
    -4.4441  -4.4438  -4.1345  -4.1342  -3.9787  -3.4721  -3.4669  -3.4663
    -3.4576  -3.4572  -3.3930  -3.2692  -3.2685  -3.2552  -3.2177  -2.9596
    -2.9573  -2.9570  -2.9437  -2.5086  -2.5081  -2.4445  -2.4358  -2.4355

     the Fermi energy is    -3.0900 ev

!    total energy              =    -140.94034561 Ry
     Harris-Foulkes estimate   =    -140.94034596 Ry
     estimated scf accuracy    <       0.00000042 Ry

     The total energy is the sum of the following terms:

     one-electron contribution =    -502.47045757 Ry
     hartree contribution      =     259.97818841 Ry
     xc contribution           =     -61.32804814 Ry
     ewald contribution        =     162.95938721 Ry
     smearing contrib. (-TS)   =      -0.07941553 Ry

     convergence has been achieved in  10 iterations

     negative rho (up, down):  1.379E-04 0.000E+00

     Forces acting on atoms (cartesian axes, Ry/au):

     atom    1 type  1   force =     0.01282292   -0.00728363    0.00000000
     atom    2 type  1   force =     0.00211321   -0.00104516    0.00000000
     atom    3 type  1   force =     0.00075243   -0.00206133    0.00000000
     atom    4 type  1   force =     0.00015147    0.00235267    0.00000000
     atom    5 type  1   force =    -0.00186235   -0.00107523    0.00000000
     atom    6 type  1   force =     0.00010365    0.01474679    0.00000000
     atom    7 type  1   force =    -0.00140895    0.00168229    0.00000000
     atom    8 type  1   force =    -0.01277547   -0.00737592    0.00000000
     atom    9 type  1   force =    -0.00206303    0.00040720    0.00000000
     atom   10 type  1   force =    -0.00002747    0.00014419    0.00000000
     atom   11 type  1   force =    -0.00067887   -0.00199024    0.00000000
     atom   12 type  1   force =    -0.00123055   -0.00071046    0.00000000
     atom   13 type  1   force =     0.00003066    0.00039175    0.00000000
     atom   14 type  1   force =     0.00011114   -0.00009589    0.00000000
     atom   15 type  1   force =     0.00035460   -0.00016933    0.00000000
     atom   16 type  1   force =    -0.00204685   -0.00116519    0.00000000
     atom   17 type  1   force =     0.00007070    0.00227874    0.00000000
     atom   18 type  1   force =    -0.00203251   -0.00119003    0.00000000
     atom   19 type  1   force =    -0.00005821   -0.00003361    0.00000000
     atom   20 type  1   force =     0.00107654   -0.00068678    0.00000000
     atom   21 type  1   force =     0.00200880   -0.00107814    0.00000000
     atom   22 type  1   force =    -0.00005650    0.00127570    0.00000000
     atom   23 type  1   force =    -0.00026454   -0.00015273    0.00000000
     atom   24 type  1   force =     0.00192739   -0.00122180    0.00000000
     atom   25 type  1   force =     0.00206532    0.00025644    0.00000000
     atom   26 type  1   force =    -0.00002476   -0.00001430    0.00000000
     atom   27 type  1   force =    -0.00004047   -0.00007283    0.00000000
     atom   28 type  1   force =    -0.00009442    0.00228007    0.00000000
     atom   29 type  1   force =    -0.00008331    0.00000137    0.00000000
     atom   30 type  1   force =    -0.00009529   -0.00005501    0.00000000
     atom   31 type  1   force =     0.00125475    0.00166040    0.00000000

     Total force =     0.027076     Total SCF correction =     0.000539


     Computing stress (Cartesian axis) and pressure


     negative rho (up, down):  1.379E-04 0.000E+00
          total   stress  (Ry/bohr**3)                   (kbar)     P=   -0.62
  -0.00000634  -0.00000001   0.00000000         -0.93     -0.00      0.00
  -0.00000001  -0.00000634   0.00000000         -0.00     -0.93      0.00
   0.00000000   0.00000000   0.00000002          0.00      0.00      0.00


     number of scf cycles    =   4
     number of bfgs steps    =   3

     enthalpy old            =    -140.9384571435 Ry
     enthalpy new            =    -140.9403456112 Ry

     CASE: enthalpy_new < enthalpy_old

     new trust radius        =       0.0510979204 bohr
     new conv_thr            =       0.0000010000 Ry

     new unit-cell volume =  37039.66241 a.u.^3 (  5488.71162 Ang^3 )
     density =      0.28119 g/cm^3

CELL_PARAMETERS (alat= 33.68096681)
   0.998780590   0.000003512   0.000000000
  -0.499387254   0.864964096   0.000000000
   0.000000000   0.000000000   1.122132950

ATOMIC_POSITIONS (angstrom)
Al       0.056345913   2.536978120   0.000000000
Al      -2.206143124   6.418500344   0.000000000
Al       0.002765763   5.146302118   0.000000000
Al      -4.445208244  10.296711239   0.000000000
Al      -2.233601765   8.988095440   0.000000000
Al      -6.675429101  14.196863504   0.000000000
Al      -4.442477138  12.845761364   0.000000000
Al       4.394050037   2.536942994   0.000000000
Al       6.680711936   1.278775290   0.000000000
Al       2.225128829   6.420151499   0.000000000
Al       4.447808437   5.146313942   0.000000000
Al      -0.002949413  10.276000873   0.000000000
Al       2.225185202   8.997278833   0.000000000
Al      -2.228142328  14.133516091   0.000000000
Al       0.003744769  12.844962874   0.000000000
Al       8.886960119   2.556031516   0.000000000
Al      11.126019757   1.295098177   0.000000000
Al       6.657036222   6.418409348   0.000000000
Al       8.906363389   5.142126974   0.000000000
Al       4.453203004  10.276174942   0.000000000
Al       6.684598381   8.987938347   0.000000000
Al       2.225277542  14.135091382   0.000000000
Al       4.446723878  12.845019596   0.000000000
Al      13.364924362   2.555863730   0.000000000
Al      15.571296273   1.278590806   0.000000000
Al      11.125944523   6.423640436   0.000000000
Al      13.345331878   5.142095366   0.000000000
Al       8.895873035  10.296560380   0.000000000
Al      11.125820259   8.986438603   0.000000000
Al       6.678951138  14.133834303   0.000000000
Al       8.892940835  12.845950770   0.000000000



     Writing output data file 2al_planar_2x2_vcr.save/
     NEW-OLD atomic charge density approx. for the potential

     negative rho (up, down):  1.379E-04 0.000E+00
     extrapolated charge   92.90407, renormalised to   93.00000

     total cpu time spent up to now is     1403.5 secs

     Self-consistent Calculation

     iteration #  1     ecut=    80.00 Ry     beta= 0.40
     Davidson diagonalization with overlap
     ethr =  1.00E-06,  avg # of iterations =  6.0

     negative rho (up, down):  1.386E-04 0.000E+00

     total cpu time spent up to now is     1440.7 secs

     total energy              =    -140.94276992 Ry
     Harris-Foulkes estimate   =    -141.41830824 Ry
     estimated scf accuracy    <       0.00033201 Ry

     iteration #  2     ecut=    80.00 Ry     beta= 0.40
     Davidson diagonalization with overlap
     ethr =  3.57E-07,  avg # of iterations =  6.0

     negative rho (up, down):  1.384E-04 0.000E+00

     total cpu time spent up to now is     1470.1 secs

     total energy              =    -140.94280990 Ry
     Harris-Foulkes estimate   =    -140.94313586 Ry
     estimated scf accuracy    <       0.00218375 Ry

     iteration #  3     ecut=    80.00 Ry     beta= 0.40
     Davidson diagonalization with overlap
     ethr =  3.57E-07,  avg # of iterations =  5.0

     negative rho (up, down):  1.382E-04 0.000E+00

     total cpu time spent up to now is     1493.9 secs

     total energy              =    -140.94295754 Ry
     Harris-Foulkes estimate   =    -140.94299181 Ry
     estimated scf accuracy    <       0.00016867 Ry

     iteration #  4     ecut=    80.00 Ry     beta= 0.40
     Davidson diagonalization with overlap
     ethr =  1.81E-07,  avg # of iterations =  3.0

     negative rho (up, down):  1.380E-04 0.000E+00

     total cpu time spent up to now is     1513.8 secs

     total energy              =    -140.94296276 Ry
     Harris-Foulkes estimate   =    -140.94297462 Ry
     estimated scf accuracy    <       0.00005232 Ry

     iteration #  5     ecut=    80.00 Ry     beta= 0.40
     Davidson diagonalization with overlap
     ethr =  5.63E-08,  avg # of iterations =  5.0

     negative rho (up, down):  1.378E-04 0.000E+00

     total cpu time spent up to now is     1535.8 secs

     total energy              =    -140.94295672 Ry
     Harris-Foulkes estimate   =    -140.94298116 Ry
     estimated scf accuracy    <       0.00014997 Ry

     iteration #  6     ecut=    80.00 Ry     beta= 0.40
     Davidson diagonalization with overlap
     ethr =  5.63E-08,  avg # of iterations =  4.0

     negative rho (up, down):  1.377E-04 0.000E+00

     total cpu time spent up to now is     1556.7 secs

     total energy              =    -140.94296815 Ry
     Harris-Foulkes estimate   =    -140.94297195 Ry
     estimated scf accuracy    <       0.00002025 Ry

     iteration #  7     ecut=    80.00 Ry     beta= 0.40
     Davidson diagonalization with overlap
     ethr =  2.18E-08,  avg # of iterations =  4.0

     negative rho (up, down):  1.377E-04 0.000E+00

     total cpu time spent up to now is     1578.7 secs

     total energy              =    -140.94296952 Ry
     Harris-Foulkes estimate   =    -140.94297220 Ry
     estimated scf accuracy    <       0.00001875 Ry

     iteration #  8     ecut=    80.00 Ry     beta= 0.40
     Davidson diagonalization with overlap
     ethr =  2.02E-08,  avg # of iterations =  1.0

     negative rho (up, down):  1.377E-04 0.000E+00

     total cpu time spent up to now is     1598.1 secs

     total energy              =    -140.94297058 Ry
     Harris-Foulkes estimate   =    -140.94297087 Ry
     estimated scf accuracy    <       0.00000166 Ry

     iteration #  9     ecut=    80.00 Ry     beta= 0.40
     Davidson diagonalization with overlap
     ethr =  1.78E-09,  avg # of iterations =  5.0

     negative rho (up, down):  1.377E-04 0.000E+00

     total cpu time spent up to now is     1625.6 secs

     total energy              =    -140.94297048 Ry
     Harris-Foulkes estimate   =    -140.94297063 Ry
     estimated scf accuracy    <       0.00000188 Ry

     iteration # 10     ecut=    80.00 Ry     beta= 0.40
     Davidson diagonalization with overlap
     ethr =  1.78E-09,  avg # of iterations =  1.0

     negative rho (up, down):  1.377E-04 0.000E+00

     total cpu time spent up to now is     1645.0 secs

     total energy              =    -140.94297025 Ry
     Harris-Foulkes estimate   =    -140.94297036 Ry
     estimated scf accuracy    <       0.00000124 Ry

     iteration # 11     ecut=    80.00 Ry     beta= 0.40
     Davidson diagonalization with overlap
     ethr =  1.33E-09,  avg # of iterations =  1.0

     negative rho (up, down):  1.377E-04 0.000E+00

     total cpu time spent up to now is     1664.0 secs

     End of self-consistent calculation

          k = 0.0000 0.0000 0.0000 (448403 PWs)   bands (ev):

    -9.9567  -9.4519  -9.4437  -9.4429  -9.4160  -9.4158  -9.1341  -8.4023
    -8.4013  -8.3969  -8.3676  -8.3673  -8.3138  -8.2349  -8.2344  -7.5798
    -6.9329  -6.9324  -6.8233  -6.4784  -6.4773  -6.4573  -6.3815  -6.3813
    -5.5048  -4.8244  -4.8178  -4.8174  -4.7375  -4.7373  -4.4687  -4.4615
    -4.4448  -4.4445  -4.1429  -4.1426  -3.9792  -3.4722  -3.4687  -3.4679
    -3.4545  -3.4542  -3.3870  -3.2895  -3.2649  -3.2643  -3.2154  -2.9597
    -2.9514  -2.9511  -2.9349  -2.5010  -2.5005  -2.4425  -2.4288  -2.4276

     the Fermi energy is    -3.0891 ev

!    total energy              =    -140.94296969 Ry
     Harris-Foulkes estimate   =    -140.94297025 Ry
     estimated scf accuracy    <       0.00000063 Ry

     The total energy is the sum of the following terms:

     one-electron contribution =    -502.79125863 Ry
     hartree contribution      =     260.13668408 Ry
     xc contribution           =     -61.32349385 Ry
     ewald contribution        =     163.11296455 Ry
     smearing contrib. (-TS)   =      -0.07786584 Ry

     convergence has been achieved in  11 iterations

     negative rho (up, down):  1.377E-04 0.000E+00

     Forces acting on atoms (cartesian axes, Ry/au):

     atom    1 type  1   force =     0.01291238   -0.00731838    0.00000000
     atom    2 type  1   force =     0.00018973   -0.00087059    0.00000000
     atom    3 type  1   force =     0.00096234   -0.00517769    0.00000000
     atom    4 type  1   force =    -0.00065909    0.00059960    0.00000000
     atom    5 type  1   force =    -0.00184070   -0.00106273    0.00000000
     atom    6 type  1   force =     0.00011829    0.01484163    0.00000000
     atom    7 type  1   force =    -0.00400284    0.00342226    0.00000000
     atom    8 type  1   force =    -0.01285076   -0.00741939    0.00000000
     atom    9 type  1   force =    -0.00488085    0.00177202    0.00000000
     atom   10 type  1   force =    -0.00002272    0.00079181    0.00000000
     atom   11 type  1   force =    -0.00090582   -0.00511295    0.00000000
     atom   12 type  1   force =    -0.00164016   -0.00094695    0.00000000
     atom   13 type  1   force =     0.00003810   -0.00007192    0.00000000
     atom   14 type  1   force =     0.00067437   -0.00041558    0.00000000
     atom   15 type  1   force =    -0.00004323    0.00006895    0.00000000
     atom   16 type  1   force =    -0.00095225    0.00035601    0.00000000
     atom   17 type  1   force =     0.00005370    0.00215763    0.00000000
     atom   18 type  1   force =    -0.00016781   -0.00100268    0.00000000
     atom   19 type  1   force =    -0.00105395   -0.00060850    0.00000000
     atom   20 type  1   force =     0.00152953   -0.00097910    0.00000000
     atom   21 type  1   force =     0.00189541   -0.00103231    0.00000000
     atom   22 type  1   force =    -0.00008316    0.00181416    0.00000000
     atom   23 type  1   force =     0.00018388    0.00010617    0.00000000
     atom   24 type  1   force =     0.00084543    0.00034279    0.00000000
     atom   25 type  1   force =     0.00486679    0.00166448    0.00000000
     atom   26 type  1   force =    -0.00002785   -0.00001608    0.00000000
     atom   27 type  1   force =     0.00103299   -0.00064075    0.00000000
     atom   28 type  1   force =     0.00071958    0.00056077    0.00000000
     atom   29 type  1   force =    -0.00003841    0.00121497    0.00000000
     atom   30 type  1   force =    -0.00072780   -0.00042020    0.00000000
     atom   31 type  1   force =     0.00387487    0.00338253    0.00000000

     Total force =     0.029306     Total SCF correction =     0.000661


     Computing stress (Cartesian axis) and pressure


     negative rho (up, down):  1.377E-04 0.000E+00
          total   stress  (Ry/bohr**3)                   (kbar)     P=   -0.66
  -0.00000670  -0.00000002   0.00000000         -0.99     -0.00      0.00
  -0.00000002  -0.00000668   0.00000000         -0.00     -0.98      0.00
   0.00000000   0.00000000   0.00000001          0.00      0.00      0.00


     number of scf cycles    =   5
     number of bfgs steps    =   4

     enthalpy old            =    -140.9403456112 Ry
     enthalpy new            =    -140.9429696947 Ry

     CASE: enthalpy_new < enthalpy_old

     new trust radius        =       0.0766074432 bohr
     new conv_thr            =       0.0000010000 Ry

     new unit-cell volume =  36981.95661 a.u.^3 (  5480.16050 Ang^3 )
     density =      0.28163 g/cm^3

CELL_PARAMETERS (alat= 33.68096681)
   0.998003110   0.000004974   0.000000000
  -0.498997247   0.864288585   0.000000000
   0.000000000   0.000000000   1.122132950

ATOMIC_POSITIONS (angstrom)
Al       0.091396762   2.514814936   0.000000000
Al      -2.194668710   6.410499516   0.000000000
Al       0.004652410   5.143511839   0.000000000
Al      -4.439448756  10.298608924   0.000000000
Al      -2.237090606   8.978054601   0.000000000
Al      -6.670146381  14.226260145   0.000000000
Al      -4.436999091  12.836750540   0.000000000
Al       4.355552870   2.514716615   0.000000000
Al       6.675658292   1.275592323   0.000000000
Al       2.223341268   6.413740832   0.000000000
Al       4.442525085   5.143528814   0.000000000
Al      -0.005274242  10.266632047   0.000000000
Al       2.223430800   8.992397981   0.000000000
Al      -2.227636706  14.123133460   0.000000000
Al       0.005591827  12.833844082   0.000000000
Al       8.872594066   2.547357508   0.000000000
Al      11.117384112   1.300400330   0.000000000
Al       6.642341309   6.410304914   0.000000000
Al       8.901769335   5.139474568   0.000000000
Al       4.451930950  10.266860585   0.000000000
Al       6.684872358   8.977808526   0.000000000
Al       2.223526272  14.126607024   0.000000000
Al       4.441436716  12.833940468   0.000000000
Al      13.361926782   2.547093119   0.000000000
Al      15.559032888   1.275275074   0.000000000
Al      11.117248811   6.418619907   0.000000000
Al      13.332463176   5.139408149   0.000000000
Al       8.886778697  10.298349606   0.000000000
Al      11.117058734   8.976637519   0.000000000
Al       6.675100302  14.123584408   0.000000000
Al       8.883937634  12.836988149   0.000000000



     Writing output data file 2al_planar_2x2_vcr.save/
     NEW-OLD atomic charge density approx. for the potential

     negative rho (up, down):  1.377E-04 0.000E+00
     extrapolated charge   92.85500, renormalised to   93.00000

     total cpu time spent up to now is     1748.3 secs

     Self-consistent Calculation

     iteration #  1     ecut=    80.00 Ry     beta= 0.40
     Davidson diagonalization with overlap
     ethr =  1.00E-06,  avg # of iterations =  8.0

     negative rho (up, down):  1.387E-04 0.000E+00

     total cpu time spent up to now is     1788.6 secs

     total energy              =    -140.94624794 Ry
     Harris-Foulkes estimate   =    -141.66582167 Ry
     estimated scf accuracy    <       0.00069939 Ry

     iteration #  2     ecut=    80.00 Ry     beta= 0.40
     Davidson diagonalization with overlap
     ethr =  7.52E-07,  avg # of iterations =  5.0

     negative rho (up, down):  1.385E-04 0.000E+00

     total cpu time spent up to now is     1817.7 secs

     total energy              =    -140.94635985 Ry
     Harris-Foulkes estimate   =    -140.94707128 Ry
     estimated scf accuracy    <       0.00477703 Ry

     iteration #  3     ecut=    80.00 Ry     beta= 0.40
     Davidson diagonalization with overlap
     c_bands:  1 eigenvalues not converged
     ethr =  7.52E-07,  avg # of iterations = 20.0

     negative rho (up, down):  1.382E-04 0.000E+00

     total cpu time spent up to now is     1847.1 secs

     total energy              =    -140.94660384 Ry
     Harris-Foulkes estimate   =    -140.94667378 Ry
     estimated scf accuracy    <       0.00032698 Ry

     iteration #  4     ecut=    80.00 Ry     beta= 0.40
     Davidson diagonalization with overlap
     ethr =  3.52E-07,  avg # of iterations =  1.0

     negative rho (up, down):  1.379E-04 0.000E+00

     total cpu time spent up to now is     1866.3 secs

     total energy              =    -140.94661361 Ry
     Harris-Foulkes estimate   =    -140.94663678 Ry
     estimated scf accuracy    <       0.00012330 Ry

     iteration #  5     ecut=    80.00 Ry     beta= 0.40
     Davidson diagonalization with overlap
     ethr =  1.33E-07,  avg # of iterations =  4.0

     negative rho (up, down):  1.376E-04 0.000E+00

     total cpu time spent up to now is     1887.4 secs

     total energy              =    -140.94659813 Ry
     Harris-Foulkes estimate   =    -140.94664456 Ry
     estimated scf accuracy    <       0.00026724 Ry

     iteration #  6     ecut=    80.00 Ry     beta= 0.40
     Davidson diagonalization with overlap
     ethr =  1.33E-07,  avg # of iterations =  3.0

     negative rho (up, down):  1.373E-04 0.000E+00

     total cpu time spent up to now is     1908.2 secs

     total energy              =    -140.94662082 Ry
     Harris-Foulkes estimate   =    -140.94662937 Ry
     estimated scf accuracy    <       0.00005489 Ry

     iteration #  7     ecut=    80.00 Ry     beta= 0.40
     Davidson diagonalization with overlap
     ethr =  5.90E-08,  avg # of iterations =  3.0

     negative rho (up, down):  1.373E-04 0.000E+00

     total cpu time spent up to now is     1928.1 secs

     total energy              =    -140.94662505 Ry
     Harris-Foulkes estimate   =    -140.94662667 Ry
     estimated scf accuracy    <       0.00000804 Ry

     iteration #  8     ecut=    80.00 Ry     beta= 0.40
     Davidson diagonalization with overlap
     ethr =  8.64E-09,  avg # of iterations =  5.0

     negative rho (up, down):  1.373E-04 0.000E+00

     total cpu time spent up to now is     1953.8 secs

     total energy              =    -140.94662551 Ry
     Harris-Foulkes estimate   =    -140.94662743 Ry
     estimated scf accuracy    <       0.00001255 Ry

     iteration #  9     ecut=    80.00 Ry     beta= 0.40
     Davidson diagonalization with overlap
     ethr =  8.64E-09,  avg # of iterations =  2.0

     negative rho (up, down):  1.373E-04 0.000E+00

     total cpu time spent up to now is     1973.5 secs

     total energy              =    -140.94662563 Ry
     Harris-Foulkes estimate   =    -140.94662612 Ry
     estimated scf accuracy    <       0.00000269 Ry

     iteration # 10     ecut=    80.00 Ry     beta= 0.40
     Davidson diagonalization with overlap
     ethr =  2.90E-09,  avg # of iterations = 19.0

     negative rho (up, down):  1.373E-04 0.000E+00

     total cpu time spent up to now is     2005.7 secs

     total energy              =    -140.94653618 Ry
     Harris-Foulkes estimate   =    -140.94653742 Ry
     estimated scf accuracy    <       0.00003913 Ry

     iteration # 11     ecut=    80.00 Ry     beta= 0.40
     Davidson diagonalization with overlap
     ethr =  2.90E-09,  avg # of iterations =  1.0

     negative rho (up, down):  1.373E-04 0.000E+00

     total cpu time spent up to now is     2025.1 secs

     total energy              =    -140.94653479 Ry
     Harris-Foulkes estimate   =    -140.94653601 Ry
     estimated scf accuracy    <       0.00002835 Ry

     iteration # 12     ecut=    80.00 Ry     beta= 0.40
     Davidson diagonalization with overlap
     ethr =  2.90E-09,  avg # of iterations =  3.0

     negative rho (up, down):  1.373E-04 0.000E+00

     total cpu time spent up to now is     2045.1 secs

     total energy              =    -140.94653489 Ry
     Harris-Foulkes estimate   =    -140.94653481 Ry
     estimated scf accuracy    <       0.00002143 Ry

     iteration # 13     ecut=    80.00 Ry     beta= 0.40
     Davidson diagonalization with overlap
     ethr =  2.90E-09,  avg # of iterations =  1.0

     negative rho (up, down):  1.373E-04 0.000E+00

     total cpu time spent up to now is     2064.5 secs

     total energy              =    -140.94653541 Ry
     Harris-Foulkes estimate   =    -140.94653483 Ry
     estimated scf accuracy    <       0.00002160 Ry

     iteration # 14     ecut=    80.00 Ry     beta= 0.40
     Davidson diagonalization with overlap
     ethr =  2.90E-09,  avg # of iterations =  1.0

     negative rho (up, down):  1.373E-04 0.000E+00

     total cpu time spent up to now is     2083.8 secs

     total energy              =    -140.94653167 Ry
     Harris-Foulkes estimate   =    -140.94653538 Ry
     estimated scf accuracy    <       0.00002510 Ry

     iteration # 15     ecut=    80.00 Ry     beta= 0.40
     Davidson diagonalization with overlap
     ethr =  2.90E-09,  avg # of iterations =  5.0

     negative rho (up, down):  1.373E-04 0.000E+00

     total cpu time spent up to now is     2111.1 secs

     total energy              =    -140.94653287 Ry
     Harris-Foulkes estimate   =    -140.94653292 Ry
     estimated scf accuracy    <       0.00000328 Ry

     iteration # 16     ecut=    80.00 Ry     beta= 0.40
     Davidson diagonalization with overlap
     ethr =  2.90E-09,  avg # of iterations =  1.0

     negative rho (up, down):  1.373E-04 0.000E+00

     total cpu time spent up to now is     2130.5 secs

     total energy              =    -140.94653280 Ry
     Harris-Foulkes estimate   =    -140.94653298 Ry
     estimated scf accuracy    <       0.00000266 Ry

     iteration # 17     ecut=    80.00 Ry     beta= 0.40
     Davidson diagonalization with overlap
     ethr =  2.86E-09,  avg # of iterations =  1.0

     negative rho (up, down):  1.373E-04 0.000E+00

     total cpu time spent up to now is     2150.0 secs

     total energy              =    -140.94653266 Ry
     Harris-Foulkes estimate   =    -140.94653284 Ry
     estimated scf accuracy    <       0.00000171 Ry

     iteration # 18     ecut=    80.00 Ry     beta= 0.40
     Davidson diagonalization with overlap
     ethr =  1.83E-09,  avg # of iterations =  4.0

     negative rho (up, down):  1.373E-04 0.000E+00

     total cpu time spent up to now is     2169.8 secs

     End of self-consistent calculation

          k = 0.0000 0.0000 0.0000 (448403 PWs)   bands (ev):

    -9.9603  -9.4537  -9.4515  -9.4513  -9.4121  -9.4119  -9.1300  -8.4082
    -8.4034  -8.4024  -8.3592  -8.3588  -8.3194  -8.2196  -8.2191  -7.5776
    -6.9344  -6.9341  -6.8262  -6.4784  -6.4777  -6.4443  -6.3861  -6.3858
    -5.5303  -4.8185  -4.8060  -4.8057  -4.7364  -4.7362  -4.4638  -4.4577
    -4.4471  -4.4471  -4.1568  -4.1566  -3.9808  -3.4727  -3.4725  -3.4720
    -3.4509  -3.4507  -3.3784  -3.3416  -3.2601  -3.2596  -3.2131  -2.9671
    -2.9431  -2.9429  -2.9165  -2.4912  -2.4910  -2.4510  -2.4413  -2.4408

     the Fermi energy is    -3.0892 ev

!    total energy              =    -140.94653200 Ry
     Harris-Foulkes estimate   =    -140.94653272 Ry
     estimated scf accuracy    <       0.00000092 Ry

     The total energy is the sum of the following terms:

     one-electron contribution =    -503.27536152 Ry
     hartree contribution      =     260.37202819 Ry
     xc contribution           =     -61.31663883 Ry
     ewald contribution        =     163.34977077 Ry
     smearing contrib. (-TS)   =      -0.07633061 Ry

     convergence has been achieved in  18 iterations

     negative rho (up, down):  1.373E-04 0.000E+00

     Forces acting on atoms (cartesian axes, Ry/au):

     atom    1 type  1   force =     0.01292759   -0.00747570    0.00000000
     atom    2 type  1   force =    -0.00272495   -0.00047713    0.00000000
     atom    3 type  1   force =     0.00133989   -0.00971344    0.00000000
     atom    4 type  1   force =    -0.00177568   -0.00212131    0.00000000
     atom    5 type  1   force =    -0.00223704   -0.00129155    0.00000000
     atom    6 type  1   force =    -0.00001035    0.01493347    0.00000000
     atom    7 type  1   force =    -0.00774214    0.00601710    0.00000000
     atom    8 type  1   force =    -0.01293972   -0.00747075    0.00000000
     atom    9 type  1   force =    -0.00903208    0.00366511    0.00000000
     atom   10 type  1   force =     0.00006119    0.00198940    0.00000000
     atom   11 type  1   force =    -0.00134196   -0.00965456    0.00000000
     atom   12 type  1   force =    -0.00173946   -0.00100428    0.00000000
     atom   13 type  1   force =    -0.00000490   -0.00081159    0.00000000
     atom   14 type  1   force =     0.00175347   -0.00094170    0.00000000
     atom   15 type  1   force =    -0.00070531    0.00040155    0.00000000
     atom   16 type  1   force =     0.00088020    0.00239012    0.00000000
     atom   17 type  1   force =    -0.00005331    0.00234319    0.00000000
     atom   18 type  1   force =     0.00251001   -0.00043278    0.00000000
     atom   19 type  1   force =    -0.00225588   -0.00130243    0.00000000
     atom   20 type  1   force =     0.00191577   -0.00112463    0.00000000
     atom   21 type  1   force =     0.00200261   -0.00121777    0.00000000
     atom   22 type  1   force =    -0.00001607    0.00222142    0.00000000
     atom   23 type  1   force =     0.00079877    0.00046117    0.00000000
     atom   24 type  1   force =    -0.00080510    0.00244928    0.00000000
     atom   25 type  1   force =     0.00901179    0.00383421    0.00000000
     atom   26 type  1   force =    -0.00002524   -0.00001457    0.00000000
     atom   27 type  1   force =     0.00243904   -0.00126885    0.00000000
     atom   28 type  1   force =     0.00171859   -0.00192187    0.00000000
     atom   29 type  1   force =     0.00012066    0.00274670    0.00000000
     atom   30 type  1   force =    -0.00189681   -0.00109512    0.00000000
     atom   31 type  1   force =     0.00782642    0.00588733    0.00000000

     Total force =     0.036788     Total SCF correction =     0.000700


     Computing stress (Cartesian axis) and pressure


     negative rho (up, down):  1.373E-04 0.000E+00
          total   stress  (Ry/bohr**3)                   (kbar)     P=   -0.70
  -0.00000718  -0.00000001   0.00000000         -1.06     -0.00      0.00
  -0.00000001  -0.00000717   0.00000000         -0.00     -1.05      0.00
  -0.00000000  -0.00000000  -0.00000000         -0.00     -0.00     -0.00


     number of scf cycles    =   6
     number of bfgs steps    =   5

     enthalpy old            =    -140.9429696947 Ry
     enthalpy new            =    -140.9465319994 Ry

     CASE: enthalpy_new < enthalpy_old

     new trust radius        =       0.1148218118 bohr
     new conv_thr            =       0.0000010000 Ry

     new unit-cell volume =  36895.02846 a.u.^3 (  5467.27908 Ang^3 )
     density =      0.28229 g/cm^3

CELL_PARAMETERS (alat= 33.68096681)
   0.996831161   0.000007865   0.000000000
  -0.498408769   0.863269311   0.000000000
   0.000000000   0.000000000   1.122132950

ATOMIC_POSITIONS (angstrom)
Al       0.143804814   2.481518394   0.000000000
Al      -2.178595998   6.398674267   0.000000000
Al       0.007669580   5.137667437   0.000000000
Al      -4.431164758  10.300274080   0.000000000
Al      -2.242560458   8.962785381   0.000000000
Al      -6.662289434  14.270128255   0.000000000
Al      -4.430063336  12.824118867   0.000000000
Al       4.297886531   2.481422896   0.000000000
Al       6.666494838   1.271434623   0.000000000
Al       2.220708533   6.404557170   0.000000000
Al       4.434342684   5.137671838   0.000000000
Al      -0.008618203  10.252590166   0.000000000
Al       2.220749044   8.984725761   0.000000000
Al      -2.226417750  14.107278388   0.000000000
Al       0.008095218  12.817190880   0.000000000
Al       8.851819042   2.535025853   0.000000000
Al      11.104280223   1.308474431   0.000000000
Al       6.621274308   6.398478935   0.000000000
Al       8.894493943   5.135274076   0.000000000
Al       4.450080966  10.252854369   0.000000000
Al       6.685312790   8.962423091   0.000000000
Al       2.220960186  14.113841089   0.000000000
Al       4.433693451  12.817358649   0.000000000
Al      13.356683287   2.534664915   0.000000000
Al      15.542095383   1.271130457   0.000000000
Al      11.104150787   6.411057673   0.000000000
Al      13.313557067   5.135208181   0.000000000
Al       8.873393848  10.300022557   0.000000000
Al      11.103968437   8.962364227   0.000000000
Al       6.668818713  14.107846444   0.000000000
Al       8.871879537  12.824392020   0.000000000



     Writing output data file 2al_planar_2x2_vcr.save/
     NEW-OLD atomic charge density approx. for the potential

     negative rho (up, down):  1.374E-04 0.000E+00
     extrapolated charge   92.78106, renormalised to   93.00000

     total cpu time spent up to now is     2252.1 secs

     Self-consistent Calculation

     iteration #  1     ecut=    80.00 Ry     beta= 0.40
     Davidson diagonalization with overlap
     ethr =  1.00E-06,  avg # of iterations =  9.0

     negative rho (up, down):  1.390E-04 0.000E+00

     total cpu time spent up to now is     2296.0 secs

     total energy              =    -140.95052722 Ry
     Harris-Foulkes estimate   =    -142.03923101 Ry
     estimated scf accuracy    <       0.00200851 Ry

     iteration #  2     ecut=    80.00 Ry     beta= 0.40
     Davidson diagonalization with overlap
     ethr =  2.16E-06,  avg # of iterations =  6.0

     negative rho (up, down):  1.386E-04 0.000E+00

     total cpu time spent up to now is     2328.9 secs

     total energy              =    -140.95030754 Ry
     Harris-Foulkes estimate   =    -140.95369871 Ry
     estimated scf accuracy    <       0.02609189 Ry

     iteration #  3     ecut=    80.00 Ry     beta= 0.40
     Davidson diagonalization with overlap
     ethr =  2.16E-06,  avg # of iterations =  5.0

     negative rho (up, down):  1.381E-04 0.000E+00

     total cpu time spent up to now is     2355.4 secs

     total energy              =    -140.95182476 Ry
     Harris-Foulkes estimate   =    -140.95196650 Ry
     estimated scf accuracy    <       0.00062167 Ry

     iteration #  4     ecut=    80.00 Ry     beta= 0.40
     Davidson diagonalization with overlap
     ethr =  6.68E-07,  avg # of iterations =  4.0

     negative rho (up, down):  1.378E-04 0.000E+00

     total cpu time spent up to now is     2375.6 secs

     total energy              =    -140.95183450 Ry
     Harris-Foulkes estimate   =    -140.95189392 Ry
     estimated scf accuracy    <       0.00032241 Ry

     iteration #  5     ecut=    80.00 Ry     beta= 0.40
     Davidson diagonalization with overlap
     ethr =  3.47E-07,  avg # of iterations =  3.0

     negative rho (up, down):  1.374E-04 0.000E+00

     total cpu time spent up to now is     2396.5 secs

     total energy              =    -140.95181066 Ry
     Harris-Foulkes estimate   =    -140.95190209 Ry
     estimated scf accuracy    <       0.00052707 Ry

     iteration #  6     ecut=    80.00 Ry     beta= 0.40
     Davidson diagonalization with overlap
     ethr =  3.47E-07,  avg # of iterations =  1.0

     negative rho (up, down):  1.368E-04 0.000E+00

     total cpu time spent up to now is     2416.1 secs

     total energy              =    -140.95185022 Ry
     Harris-Foulkes estimate   =    -140.95186588 Ry
     estimated scf accuracy    <       0.00008420 Ry

     iteration #  7     ecut=    80.00 Ry     beta= 0.40
     Davidson diagonalization with overlap
     ethr =  9.05E-08,  avg # of iterations =  4.0

     negative rho (up, down):  1.368E-04 0.000E+00

     total cpu time spent up to now is     2438.8 secs

     total energy              =    -140.95185870 Ry
     Harris-Foulkes estimate   =    -140.95187098 Ry
     estimated scf accuracy    <       0.00008580 Ry

     iteration #  8     ecut=    80.00 Ry     beta= 0.40
     Davidson diagonalization with overlap
     ethr =  9.05E-08,  avg # of iterations =  1.0

     negative rho (up, down):  1.368E-04 0.000E+00

     total cpu time spent up to now is     2458.2 secs

     total energy              =    -140.95186421 Ry
     Harris-Foulkes estimate   =    -140.95186586 Ry
     estimated scf accuracy    <       0.00000967 Ry

     iteration #  9     ecut=    80.00 Ry     beta= 0.40
     Davidson diagonalization with overlap
     ethr =  1.04E-08,  avg # of iterations =  5.0

     negative rho (up, down):  1.367E-04 0.000E+00

     total cpu time spent up to now is     2483.1 secs

     total energy              =    -140.95186482 Ry
     Harris-Foulkes estimate   =    -140.95186636 Ry
     estimated scf accuracy    <       0.00000684 Ry

     iteration # 10     ecut=    80.00 Ry     beta= 0.40
     Davidson diagonalization with overlap
     ethr =  7.35E-09,  avg # of iterations =  4.0

     negative rho (up, down):  1.367E-04 0.000E+00

     total cpu time spent up to now is     2505.1 secs

     total energy              =    -140.95186483 Ry
     Harris-Foulkes estimate   =    -140.95186609 Ry
     estimated scf accuracy    <       0.00000890 Ry

     iteration # 11     ecut=    80.00 Ry     beta= 0.40
     Davidson diagonalization with overlap
     ethr =  7.35E-09,  avg # of iterations =  1.0

     negative rho (up, down):  1.367E-04 0.000E+00

     total cpu time spent up to now is     2524.1 secs

     total energy              =    -140.95186501 Ry
     Harris-Foulkes estimate   =    -140.95186550 Ry
[...]
Al       7.098824025   9.708829872   0.000000000
Al       9.482074287   8.436258661   0.000000000
Al       5.746032758  12.090873356   0.000000000
Al       8.325742937  12.026538985   0.000000000
End final coordinates



     Writing output data file 2al_planar_2x2_vcr.save/

     A final scf calculation at the relaxed structure.
     The G-vectors are recalculated for the final unit cell
     Results may differ from those at the preceding step.
 
     Parallelization info
     --------------------
     sticks:   dense  smooth     PW     G-vecs:    dense   smooth      PW
     Min        2304    2304    576               330600   330600   41308
     Max        2305    2305    577               330603   330603   41311
     Sum       18439   18439   4615              2644813  2644813  330477
 


     bravais-lattice index     =            4
     lattice parameter (alat)  =      33.6810  a.u.
     unit-cell volume          =   27359.9903 (a.u.)^3
     number of atoms/cell      =           31
     number of atomic types    =            1
     number of electrons       =        93.00
     number of Kohn-Sham states=           56
     kinetic-energy cutoff     =      80.0000  Ry
     charge density cutoff     =     320.0000  Ry
     convergence threshold     =      1.0E-08
     mixing beta               =       0.4000
     number of iterations used =            8  plain     mixing
     Exchange-correlation      = PBE ( 1  4  3  4 0 0)

     celldm(1)=  33.680967  celldm(2)=   0.000000  celldm(3)=   1.122133
     celldm(4)=   0.000000  celldm(5)=   0.000000  celldm(6)=   0.000000

     crystal axes: (cart. coord. in units of alat)
               a(1) = (   0.861349   0.005060   0.000000 )  
               a(2) = (  -0.426293   0.738360   0.000000 )  
               a(3) = (   0.000000   0.000000   1.122133 )  

     reciprocal axes: (cart. coord. in units 2 pi/alat)
               b(1) = (  1.157045  0.668020  0.000000 )  
               b(2) = ( -0.007929  1.349774  0.000000 )  
               b(3) = (  0.000000  0.000000  0.891160 )  


     PseudoPot. # 1 for Al read from file:
     ./Al.upf
     MD5 check sum: 4974d48a734c9d7d1eb6780a1419d19d
     Pseudo is Norm-conserving + core correction, Zval =  3.0
     Generated using ONCVPSP code by D. R. Hamann
     Using radial grid of 1876 points,  6 beta functions with: 
                l(1) =   0
                l(2) =   0
                l(3) =   1
                l(4) =   1
                l(5) =   2
                l(6) =   2

     atomic species   valence    mass     pseudopotential
        Al             3.00    29.98200     Al( 1.00)

      4 Sym. Ops. (no inversion) found ( 2 have fractional translation)



   Cartesian axes

     site n.     atom                  positions (alat units)
         1           Al  tau(   1) = (   0.0880398   0.1301994   0.0000000  )
         2           Al  tau(   2) = (  -0.0922400   0.3468217   0.0000000  )
         3           Al  tau(   3) = (  -0.0312410   0.2133144   0.0000000  )
         4           Al  tau(   4) = (  -0.1720582   0.4850726   0.0000000  )
         5           Al  tau(   5) = (  -0.2306267   0.3590901   0.0000000  )
         6           Al  tau(   6) = (  -0.2695171   0.7495115   0.0000000  )
         7           Al  tau(   7) = (  -0.2571778   0.6046519   0.0000000  )
         8           Al  tau(   8) = (   0.2549792   0.1472141   0.0000000  )
         9           Al  tau(   9) = (   0.2961799   0.0011787   0.0000000  )
        10           Al  tau(  10) = (   0.0496886   0.3537148   0.0000000  )
        11           Al  tau(  11) = (   0.1491107   0.2559117   0.0000000  )
        12           Al  tau(  12) = (  -0.0213720   0.4799052   0.0000000  )
        13           Al  tau(  13) = (   0.1285429   0.4786806   0.0000000  )
        14           Al  tau(  14) = (  -0.0951242   0.6045416   0.0000000  )
        15           Al  tau(  15) = (   0.0525265   0.6103467   0.0000000  )
        16           Al  tau(  16) = (   0.4126834   0.0796288   0.0000000  )
        17           Al  tau(  17) = (   0.5396757   0.1526743   0.0000000  )
        18           Al  tau(  18) = (   0.2753007   0.3175843   0.0000000  )
        19           Al  tau(  19) = (   0.3881788   0.2241168   0.0000000  )
        20           Al  tau(  20) = (   0.2735611   0.4675247   0.0000000  )
        21           Al  tau(  21) = (   0.4020577   0.3910391   0.0000000  )
        22           Al  tau(  22) = (   0.1153727   0.7415168   0.0000000  )
        23           Al  tau(  23) = (   0.1990907   0.6071893   0.0000000  )
        24           Al  tau(  24) = (   0.6708910   0.0725698   0.0000000  )
        25           Al  tau(  25) = (   0.8179271   0.0671642   0.0000000  )
        26           Al  tau(  26) = (   0.5127653   0.2960487   0.0000000  )
        27           Al  tau(  27) = (   0.6759167   0.2240703   0.0000000  )
        28           Al  tau(  28) = (   0.3982912   0.5447299   0.0000000  )
        29           Al  tau(  29) = (   0.5320074   0.4733302   0.0000000  )
        30           Al  tau(  30) = (   0.3223906   0.6783784   0.0000000  )
        31           Al  tau(  31) = (   0.4671295   0.6747688   0.0000000  )

     number of k points=     1  Methfessel-Paxton smearing, width (Ry)=  0.0500
                       cart. coord. in units 2pi/alat
        k(    1) = (   0.0000000   0.0000000   0.0000000), wk =   2.0000000

     Dense  grid:  2644813 G-vectors     FFT dimensions: ( 180, 180, 216)

     Estimated max dynamical RAM per process >     888.75 MB

     Estimated total dynamical RAM >       6.94 GB

     Initial potential from superposition of free atoms

     starting charge   92.92414, renormalised to   93.00000

     negative rho (up, down):  7.321E-05 0.000E+00
     Starting wfcs are  124 randomized atomic wfcs

     total cpu time spent up to now is    61140.0 secs

     Self-consistent Calculation

     iteration #  1     ecut=    80.00 Ry     beta= 0.40
     Davidson diagonalization with overlap
     c_bands:  1 eigenvalues not converged
     ethr =  1.00E-06,  avg # of iterations = 20.0

     negative rho (up, down):  2.112E-05 0.000E+00

     total cpu time spent up to now is    61202.8 secs

     total energy              =    -141.89443322 Ry
     Harris-Foulkes estimate   =    -142.27103030 Ry
     estimated scf accuracy    <       1.00693544 Ry

     iteration #  2     ecut=    80.00 Ry     beta= 0.40
     Davidson diagonalization with overlap
     ethr =  1.08E-03,  avg # of iterations =  3.0

     negative rho (up, down):  2.252E-05 0.000E+00

     total cpu time spent up to now is    61220.3 secs

     total energy              =    -141.83250353 Ry
     Harris-Foulkes estimate   =    -142.06336848 Ry
     estimated scf accuracy    <       0.61477194 Ry

     iteration #  3     ecut=    80.00 Ry     beta= 0.40
     Davidson diagonalization with overlap
     ethr =  6.61E-04,  avg # of iterations =  5.0

     negative rho (up, down):  2.692E-05 0.000E+00

     total cpu time spent up to now is    61241.8 secs

     total energy              =    -141.88104460 Ry
     Harris-Foulkes estimate   =    -142.06947441 Ry
     estimated scf accuracy    <       0.88575819 Ry

     iteration #  4     ecut=    80.00 Ry     beta= 0.40
     Davidson diagonalization with overlap
     ethr =  6.61E-04,  avg # of iterations =  3.0

     negative rho (up, down):  2.816E-05 0.000E+00

     total cpu time spent up to now is    61259.9 secs

     total energy              =    -141.96587207 Ry
     Harris-Foulkes estimate   =    -141.97285128 Ry
     estimated scf accuracy    <       0.02319486 Ry

     iteration #  5     ecut=    80.00 Ry     beta= 0.40
     Davidson diagonalization with overlap
     ethr =  2.49E-05,  avg # of iterations = 12.0

     negative rho (up, down):  2.915E-05 0.000E+00

     total cpu time spent up to now is    61287.1 secs

     total energy              =    -141.97163212 Ry
     Harris-Foulkes estimate   =    -141.97521077 Ry
     estimated scf accuracy    <       0.01456212 Ry

     iteration #  6     ecut=    80.00 Ry     beta= 0.40
     Davidson diagonalization with overlap
     ethr =  1.57E-05,  avg # of iterations =  5.0

     negative rho (up, down):  3.000E-05 0.000E+00

     total cpu time spent up to now is    61306.3 secs

     total energy              =    -141.97230558 Ry
     Harris-Foulkes estimate   =    -141.97454193 Ry
     estimated scf accuracy    <       0.00979679 Ry

     iteration #  7     ecut=    80.00 Ry     beta= 0.40
     Davidson diagonalization with overlap
     ethr =  1.05E-05,  avg # of iterations =  4.0

     negative rho (up, down):  3.044E-05 0.000E+00

     total cpu time spent up to now is    61325.1 secs

     total energy              =    -141.97334934 Ry
     Harris-Foulkes estimate   =    -141.97359999 Ry
     estimated scf accuracy    <       0.00091860 Ry

     iteration #  8     ecut=    80.00 Ry     beta= 0.40
     Davidson diagonalization with overlap
     ethr =  9.88E-07,  avg # of iterations = 12.0

     negative rho (up, down):  3.061E-05 0.000E+00

     total cpu time spent up to now is    61349.2 secs

     total energy              =    -141.97336725 Ry
     Harris-Foulkes estimate   =    -141.97345554 Ry
     estimated scf accuracy    <       0.00046147 Ry

     iteration #  9     ecut=    80.00 Ry     beta= 0.40
     Davidson diagonalization with overlap
     ethr =  4.96E-07,  avg # of iterations =  3.0

     negative rho (up, down):  3.068E-05 0.000E+00

     total cpu time spent up to now is    61366.5 secs

     total energy              =    -141.97338068 Ry
     Harris-Foulkes estimate   =    -141.97341235 Ry
     estimated scf accuracy    <       0.00013881 Ry

     iteration # 10     ecut=    80.00 Ry     beta= 0.40
     Davidson diagonalization with overlap
     ethr =  1.49E-07,  avg # of iterations =  5.0

     negative rho (up, down):  3.075E-05 0.000E+00

     total cpu time spent up to now is    61386.5 secs

     total energy              =    -141.97340047 Ry
     Harris-Foulkes estimate   =    -141.97340373 Ry
     estimated scf accuracy    <       0.00001304 Ry

     iteration # 11     ecut=    80.00 Ry     beta= 0.40
     Davidson diagonalization with overlap
     ethr =  1.40E-08,  avg # of iterations =  5.0

     negative rho (up, down):  3.079E-05 0.000E+00

     total cpu time spent up to now is    61409.0 secs

     total energy              =    -141.97340278 Ry
     Harris-Foulkes estimate   =    -141.97340381 Ry
     estimated scf accuracy    <       0.00000464 Ry

     iteration # 12     ecut=    80.00 Ry     beta= 0.40
     Davidson diagonalization with overlap
     ethr =  4.99E-09,  avg # of iterations =  3.0

     negative rho (up, down):  3.082E-05 0.000E+00

     total cpu time spent up to now is    61427.7 secs

     total energy              =    -141.97340272 Ry
     Harris-Foulkes estimate   =    -141.97340329 Ry
     estimated scf accuracy    <       0.00000194 Ry

     iteration # 13     ecut=    80.00 Ry     beta= 0.40
     Davidson diagonalization with overlap
     ethr =  2.09E-09,  avg # of iterations =  5.0

     negative rho (up, down):  3.084E-05 0.000E+00

     total cpu time spent up to now is    61448.1 secs

     total energy              =    -141.97340270 Ry
     Harris-Foulkes estimate   =    -141.97340296 Ry
     estimated scf accuracy    <       0.00000139 Ry

     iteration # 14     ecut=    80.00 Ry     beta= 0.40
     Davidson diagonalization with overlap
     ethr =  1.50E-09,  avg # of iterations =  4.0

     negative rho (up, down):  3.085E-05 0.000E+00

     total cpu time spent up to now is    61465.4 secs

     total energy              =    -141.97340264 Ry
     Harris-Foulkes estimate   =    -141.97340272 Ry
     estimated scf accuracy    <       0.00000028 Ry

     iteration # 15     ecut=    80.00 Ry     beta= 0.40
     Davidson diagonalization with overlap
     ethr =  3.02E-10,  avg # of iterations =  6.0

     negative rho (up, down):  3.085E-05 0.000E+00

     total cpu time spent up to now is    61486.0 secs

     total energy              =    -141.97340261 Ry
     Harris-Foulkes estimate   =    -141.97340263 Ry
     estimated scf accuracy    <       0.00000004 Ry

     iteration # 16     ecut=    80.00 Ry     beta= 0.40
     Davidson diagonalization with overlap
     ethr =  4.58E-11,  avg # of iterations =  5.0

     negative rho (up, down):  3.085E-05 0.000E+00

     total cpu time spent up to now is    61507.8 secs

     total energy              =    -141.97340254 Ry
     Harris-Foulkes estimate   =    -141.97340255 Ry
     estimated scf accuracy    <       0.00000005 Ry

     iteration # 17     ecut=    80.00 Ry     beta= 0.40
     Davidson diagonalization with overlap
     ethr =  4.58E-11,  avg # of iterations =  5.0

     negative rho (up, down):  3.086E-05 0.000E+00

     total cpu time spent up to now is    61526.4 secs

     total energy              =    -141.97340251 Ry
     Harris-Foulkes estimate   =    -141.97340251 Ry
     estimated scf accuracy    <       0.00000001 Ry

     iteration # 18     ecut=    80.00 Ry     beta= 0.40
     Davidson diagonalization with overlap
     ethr =  1.59E-11,  avg # of iterations =  3.0

     negative rho (up, down):  3.086E-05 0.000E+00

     total cpu time spent up to now is    61543.1 secs

     End of self-consistent calculation

          k = 0.0000 0.0000 0.0000 (330477 PWs)   bands (ev):

   -11.4587 -10.8344 -10.6798 -10.5836 -10.5365 -10.4469 -10.3902  -9.1876
    -9.0475  -8.9941  -8.8826  -8.8725  -8.6676  -8.2541  -8.1417  -8.1406
    -8.1144  -7.9021  -7.6537  -6.0615  -6.0008  -5.9550  -5.9510  -5.9029
    -5.8266  -5.6763  -5.5429  -5.4644  -5.4248  -5.2845  -5.2167  -4.7784
    -4.4730  -4.3408  -4.1366  -4.1325  -4.0305  -3.9587  -3.9368  -3.8757
    -3.8235  -3.7908  -3.7411  -3.7335  -2.5375  -2.4429  -2.3973  -2.3462
    -2.2950  -2.1898  -2.1816  -2.0756  -1.9453  -1.7869  -1.7061  -1.6151

     the Fermi energy is    -2.4736 ev

!    total energy              =    -141.97340249 Ry
     Harris-Foulkes estimate   =    -141.97340249 Ry
     estimated scf accuracy    <          2.6E-09 Ry

     The total energy is the sum of the following terms:

     one-electron contribution =    -670.66708914 Ry
     hartree contribution      =     344.06104740 Ry
     xc contribution           =     -63.39922420 Ry
     ewald contribution        =     248.08160096 Ry
     smearing contrib. (-TS)   =      -0.04973750 Ry

     convergence has been achieved in  18 iterations

     negative rho (up, down):  3.086E-05 0.000E+00

     Forces acting on atoms (cartesian axes, Ry/au):

     atom    1 type  1   force =    -0.00000071   -0.00000796    0.00000000
     atom    2 type  1   force =    -0.00000262   -0.00000574    0.00000000
     atom    3 type  1   force =    -0.00000495    0.00000999    0.00000000
     atom    4 type  1   force =    -0.00000628    0.00000060    0.00000000
     atom    5 type  1   force =     0.00000271    0.00000156    0.00000000
     atom    6 type  1   force =    -0.00000725    0.00000336    0.00000000
     atom    7 type  1   force =     0.00000618   -0.00000928    0.00000000
     atom    8 type  1   force =     0.00000021    0.00000012    0.00000000
     atom    9 type  1   force =    -0.00000867    0.00000316    0.00000000
     atom   10 type  1   force =     0.00000230   -0.00000458    0.00000000
     atom   11 type  1   force =    -0.00000160   -0.00000909    0.00000000
     atom   12 type  1   force =    -0.00000378   -0.00000218    0.00000000
     atom   13 type  1   force =    -0.00000134    0.00000065    0.00000000
     atom   14 type  1   force =    -0.00000282    0.00000428    0.00000000
     atom   15 type  1   force =    -0.00000011   -0.00000149    0.00000000
     atom   16 type  1   force =    -0.00000796   -0.00000160    0.00000000
     atom   17 type  1   force =     0.00001213   -0.00000251    0.00000000
     atom   18 type  1   force =    -0.00000537   -0.00000610    0.00000000
     atom   19 type  1   force =    -0.00000193   -0.00000112    0.00000000
     atom   20 type  1   force =    -0.00000510    0.00000423    0.00000000
     atom   21 type  1   force =     0.00000389    0.00001177    0.00000000
     atom   22 type  1   force =     0.00000111   -0.00000653    0.00000000
     atom   23 type  1   force =     0.00000358    0.00000206    0.00000000
     atom   24 type  1   force =     0.00000135    0.00000513    0.00000000
     atom   25 type  1   force =     0.00001529    0.00000535    0.00000000
     atom   26 type  1   force =     0.00000150    0.00000087    0.00000000
     atom   27 type  1   force =    -0.00000081   -0.00000212    0.00000000
     atom   28 type  1   force =     0.00000512   -0.00000140    0.00000000
     atom   29 type  1   force =    -0.00000224    0.00000036    0.00000000
     atom   30 type  1   force =    -0.00000409   -0.00000236    0.00000000
     atom   31 type  1   force =     0.00001228    0.00001057    0.00000000

     Total force =     0.000043     Total SCF correction =     0.000052
     SCF correction compared to forces is large: reduce conv_thr to get better values


     Computing stress (Cartesian axis) and pressure


     negative rho (up, down):  3.086E-05 0.000E+00
          total   stress  (Ry/bohr**3)                   (kbar)     P=    0.00
   0.00000003  -0.00000001   0.00000000          0.00     -0.00      0.00
  -0.00000001   0.00000004   0.00000000         -0.00      0.01      0.00
   0.00000000   0.00000000  -0.00000001          0.00      0.00     -0.00


     Writing output data file 2al_planar_2x2_vcr.save/
 
     init_run     :     47.40s CPU     51.32s WALL (       2 calls)
     electrons    :  42033.35s CPU  46914.89s WALL (     179 calls)
     update_pot   :   3814.97s CPU   3845.43s WALL (     177 calls)
     forces       :   3005.80s CPU   3061.26s WALL (     179 calls)
     stress       :   7453.68s CPU   7594.60s WALL (     179 calls)

     Called by init_run:
     wfcinit      :     23.02s CPU     26.42s WALL (       2 calls)
     potinit      :      9.01s CPU      9.26s WALL (       2 calls)
     hinit0       :     12.67s CPU     12.84s WALL (       2 calls)

     Called by electrons:
     c_bands      :  35683.86s CPU  39692.40s WALL (    1709 calls)
     sum_band     :   4224.48s CPU   4802.15s WALL (    1709 calls)
     v_of_rho     :   1805.47s CPU   1994.93s WALL (    1832 calls)
     mix_rho      :    379.73s CPU    470.74s WALL (    1709 calls)

     Called by c_bands:
     init_us_2    :    395.28s CPU    398.16s WALL (    3420 calls)
     cegterg      :  31296.34s CPU  35290.69s WALL (    1709 calls)

     Called by sum_band:

     Called by *egterg:
     h_psi        :  26750.46s CPU  30636.23s WALL (   11416 calls)
     g_psi        :     77.96s CPU     79.14s WALL (    9705 calls)
     cdiaghg      :     93.83s CPU     94.69s WALL (   11181 calls)

     Called by h_psi:
     h_psi:pot    :  26701.77s CPU  30520.69s WALL (   11416 calls)
     h_psi:calbec :   4645.44s CPU   4661.32s WALL (   11416 calls)
     vloc_psi     :  17381.98s CPU  21170.11s WALL (   11416 calls)
     add_vuspsi   :   4674.21s CPU   4689.18s WALL (   11416 calls)

     General routines
     calbec       :   5372.15s CPU   5389.86s WALL (   12311 calls)
     fft          :   1680.71s CPU   1840.26s WALL (   23028 calls)
     ffts         :    111.21s CPU    121.83s WALL (    1709 calls)
     fftw         :  18634.47s CPU  22886.06s WALL (  667430 calls)
 
     Parallel routines
     fft_scatt_xy :   2899.23s CPU   3767.36s WALL (  692167 calls)
     fft_scatt_yz :   8817.18s CPU   9729.18s WALL (  692167 calls)
 
     PWSCF        :    15h40m CPU       40h17m WALL

       6h
 
   This run was terminated on:  11:22:39  26Nov2020            

=------------------------------------------------------------------------------=
   JOB DONE.
=------------------------------------------------------------------------------=
