
     Program PWSCF v.6.3MaX starts on 25Nov2020 at 17:22:29 

     This program is part of the open-source Quantum ESPRESSO suite
     for quantum simulation of materials; please cite
         "P. Giannozzi et al., J. Phys.:Condens. Matter 21 395502 (2009);
         "P. Giannozzi et al., J. Phys.:Condens. Matter 29 465901 (2017);
          URL http://www.quantum-espresso.org", 
     in publications or presentations arising from this work. More details at
     http://www.quantum-espresso.org/quote

     Parallel version (MPI), running on     8 processors

     MPI processes distributed on     4 nodes
     R & G space division:  proc/nbgrp/npool/nimage =       8
     Waiting for input...
     Reading input from standard input

     Current dimensions of program PWSCF are:
     Max number of different atomic species (ntypx) = 10
     Max number of k-points (npk) =  40000
     Max angular momentum in pseudopotentials (lmaxx) =  3

     Subspace diagonalization in iterative solution of the eigenvalue problem:
     a serial algorithm will be used

 
     Parallelization info
     --------------------
     sticks:   dense  smooth     PW     G-vecs:    dense   smooth      PW
     Min        1758    1758    438               252392   252392   31546
     Max        1759    1759    439               252397   252397   31551
     Sum       14071   14071   3505              2019149  2019149  252395
 


     bravais-lattice index     =            4
     lattice parameter (alat)  =      25.2607  a.u.
     unit-cell volume          =   20885.8003 (a.u.)^3
     number of atoms/cell      =           17
     number of atomic types    =            1
     number of electrons       =        51.00
     number of Kohn-Sham states=           31
     kinetic-energy cutoff     =      80.0000  Ry
     charge density cutoff     =     320.0000  Ry
     convergence threshold     =      1.0E-06
     mixing beta               =       0.4000
     number of iterations used =            8  plain     mixing
     Exchange-correlation      = PBE ( 1  4  3  4 0 0)
     nstep                     =          300


     celldm(1)=  25.260725  celldm(2)=   0.000000  celldm(3)=   1.496177
     celldm(4)=   0.000000  celldm(5)=   0.000000  celldm(6)=   0.000000

     crystal axes: (cart. coord. in units of alat)
               a(1) = (   1.000000   0.000000   0.000000 )  
               a(2) = (  -0.500000   0.866025   0.000000 )  
               a(3) = (   0.000000   0.000000   1.496177 )  

     reciprocal axes: (cart. coord. in units 2 pi/alat)
               b(1) = (  1.000000  0.577350  0.000000 )  
               b(2) = (  0.000000  1.154701  0.000000 )  
               b(3) = (  0.000000  0.000000  0.668370 )  


     PseudoPot. # 1 for Al read from file:
     ./Al.upf
     MD5 check sum: 4974d48a734c9d7d1eb6780a1419d19d
     Pseudo is Norm-conserving + core correction, Zval =  3.0
     Generated using ONCVPSP code by D. R. Hamann
     Using radial grid of 1876 points,  6 beta functions with: 
                l(1) =   0
                l(2) =   0
                l(3) =   1
                l(4) =   1
                l(5) =   2
                l(6) =   2

     atomic species   valence    mass     pseudopotential
        Al             3.00    29.98200     Al( 1.00)

      2 Sym. Ops. (no inversion) found



   Cartesian axes

     site n.     atom                  positions (alat units)
         1           Al  tau(   1) = (   0.0000000   0.1924524   0.0000000  )
         2           Al  tau(   2) = (   0.1666687   0.0962261   0.0000000  )
         3           Al  tau(   3) = (   0.3333348   0.1924537   0.0000000  )
         4           Al  tau(   4) = (   0.5000036   0.0962275   0.0000000  )
         5           Al  tau(   5) = (  -0.1666663   0.4811295   0.0000000  )
         6           Al  tau(   6) = (   0.0000024   0.3849033   0.0000000  )
         7           Al  tau(   7) = (   0.1666686   0.4811309   0.0000000  )
         8           Al  tau(   8) = (   0.3333373   0.3849047   0.0000000  )
         9           Al  tau(   9) = (  -0.3333326   0.7698067   0.0000000  )
        10           Al  tau(  10) = (  -0.1666639   0.6735805   0.0000000  )
        11           Al  tau(  11) = (   0.0000023   0.7698081   0.0000000  )
        12           Al  tau(  12) = (   0.1666710   0.6735818   0.0000000  )
        13           Al  tau(  13) = (   0.8333384   0.0962289   0.0000000  )
        14           Al  tau(  14) = (   0.5000035   0.4811323   0.0000000  )
        15           Al  tau(  15) = (   0.6666722   0.3849060   0.0000000  )
        16           Al  tau(  16) = (   0.3333372   0.7698094   0.0000000  )
        17           Al  tau(  17) = (   0.5000059   0.6735832   0.0000000  )

     number of k points=     1  Methfessel-Paxton smearing, width (Ry)=  0.0500
                       cart. coord. in units 2pi/alat
        k(    1) = (   0.0000000   0.0000000   0.0000000), wk =   2.0000000

     Dense  grid:  2019149 G-vectors     FFT dimensions: ( 144, 144, 216)

     Estimated max dynamical RAM per process >     437.36 MB

     Estimated total dynamical RAM >       3.42 GB

     Initial potential from superposition of free atoms

     starting charge   50.95840, renormalised to   51.00000

     negative rho (up, down):  5.196E-05 0.000E+00
     Starting wfcs are   68 randomized atomic wfcs

     total cpu time spent up to now is       13.2 secs

     Self-consistent Calculation

     iteration #  1     ecut=    80.00 Ry     beta= 0.40
     Davidson diagonalization with overlap
     ethr =  1.00E-02,  avg # of iterations =  2.0

     total cpu time spent up to now is       19.1 secs

     total energy              =     -77.03433602 Ry
     Harris-Foulkes estimate   =     -77.31743103 Ry
     estimated scf accuracy    <       0.79331161 Ry

     iteration #  2     ecut=    80.00 Ry     beta= 0.40
     Davidson diagonalization with overlap
     ethr =  1.56E-03,  avg # of iterations =  4.0

     total cpu time spent up to now is       25.0 secs

     total energy              =     -77.00087936 Ry
     Harris-Foulkes estimate   =     -77.25622913 Ry
     estimated scf accuracy    <       0.83457009 Ry

     iteration #  3     ecut=    80.00 Ry     beta= 0.40
     Davidson diagonalization with overlap
     ethr =  1.56E-03,  avg # of iterations =  3.0

     total cpu time spent up to now is       30.6 secs

     total energy              =     -77.12494508 Ry
     Harris-Foulkes estimate   =     -77.19134792 Ry
     estimated scf accuracy    <       0.30997074 Ry

     iteration #  4     ecut=    80.00 Ry     beta= 0.40
     Davidson diagonalization with overlap
     ethr =  6.08E-04,  avg # of iterations =  2.0

     total cpu time spent up to now is       35.5 secs

     total energy              =     -77.14786411 Ry
     Harris-Foulkes estimate   =     -77.16554916 Ry
     estimated scf accuracy    <       0.07605203 Ry

     iteration #  5     ecut=    80.00 Ry     beta= 0.40
     Davidson diagonalization with overlap
     ethr =  1.49E-04,  avg # of iterations =  3.0

     total cpu time spent up to now is       40.9 secs

     total energy              =     -77.15920551 Ry
     Harris-Foulkes estimate   =     -77.16212027 Ry
     estimated scf accuracy    <       0.01586607 Ry

     iteration #  6     ecut=    80.00 Ry     beta= 0.40
     Davidson diagonalization with overlap
     ethr =  3.11E-05,  avg # of iterations =  5.0

     total cpu time spent up to now is       47.3 secs

     total energy              =     -77.16160379 Ry
     Harris-Foulkes estimate   =     -77.16208224 Ry
     estimated scf accuracy    <       0.00284652 Ry

     iteration #  7     ecut=    80.00 Ry     beta= 0.40
     Davidson diagonalization with overlap
     ethr =  5.58E-06,  avg # of iterations =  4.0

     total cpu time spent up to now is       53.4 secs

     total energy              =     -77.16202049 Ry
     Harris-Foulkes estimate   =     -77.16215979 Ry
     estimated scf accuracy    <       0.00049313 Ry

     iteration #  8     ecut=    80.00 Ry     beta= 0.40
     Davidson diagonalization with overlap
     ethr =  9.67E-07,  avg # of iterations =  3.0

     total cpu time spent up to now is       59.8 secs

     total energy              =     -77.16207530 Ry
     Harris-Foulkes estimate   =     -77.16215176 Ry
     estimated scf accuracy    <       0.00037327 Ry

     iteration #  9     ecut=    80.00 Ry     beta= 0.40
     Davidson diagonalization with overlap
     ethr =  7.32E-07,  avg # of iterations =  2.0

     total cpu time spent up to now is       65.0 secs

     total energy              =     -77.16209927 Ry
     Harris-Foulkes estimate   =     -77.16211699 Ry
     estimated scf accuracy    <       0.00007676 Ry

     iteration # 10     ecut=    80.00 Ry     beta= 0.40
     Davidson diagonalization with overlap
     ethr =  1.51E-07,  avg # of iterations =  4.0

     total cpu time spent up to now is       71.6 secs

     total energy              =     -77.16209727 Ry
     Harris-Foulkes estimate   =     -77.16212830 Ry
     estimated scf accuracy    <       0.00019910 Ry

     iteration # 11     ecut=    80.00 Ry     beta= 0.40
     Davidson diagonalization with overlap
     ethr =  1.51E-07,  avg # of iterations =  3.0

     total cpu time spent up to now is       78.1 secs

     total energy              =     -77.16211057 Ry
     Harris-Foulkes estimate   =     -77.16211536 Ry
     estimated scf accuracy    <       0.00001607 Ry

     iteration # 12     ecut=    80.00 Ry     beta= 0.40
     Davidson diagonalization with overlap
     ethr =  3.15E-08,  avg # of iterations =  4.0

     total cpu time spent up to now is       84.9 secs

     total energy              =     -77.16211359 Ry
     Harris-Foulkes estimate   =     -77.16211427 Ry
     estimated scf accuracy    <       0.00000371 Ry

     iteration # 13     ecut=    80.00 Ry     beta= 0.40
     Davidson diagonalization with overlap
     ethr =  7.27E-09,  avg # of iterations =  4.0

     total cpu time spent up to now is       90.9 secs

     total energy              =     -77.16211388 Ry
     Harris-Foulkes estimate   =     -77.16211424 Ry
     estimated scf accuracy    <       0.00000145 Ry

     iteration # 14     ecut=    80.00 Ry     beta= 0.40
     Davidson diagonalization with overlap
     ethr =  2.84E-09,  avg # of iterations =  3.0

     total cpu time spent up to now is       96.2 secs

     End of self-consistent calculation

          k = 0.0000 0.0000 0.0000 (252395 PWs)   bands (ev):

    -9.9966  -9.1546  -9.0983  -9.0978  -9.0599  -9.0596  -8.4089  -7.5383
    -7.4674  -7.4673  -6.7264  -5.8851  -5.8794  -5.8792  -5.6094  -5.6092
    -4.7521  -4.7519  -4.0027  -3.5336  -3.3090  -3.2901  -3.2899  -3.2355
    -3.1478  -3.1135  -3.1133  -3.0990  -3.0989  -2.7513  -2.7512

     the Fermi energy is    -3.1136 ev

!    total energy              =     -77.16211367 Ry
     Harris-Foulkes estimate   =     -77.16211417 Ry
     estimated scf accuracy    <       0.00000058 Ry

     The total energy is the sum of the following terms:

     one-electron contribution =    -269.13930665 Ry
     hartree contribution      =     139.26354664 Ry
     xc contribution           =     -33.51710446 Ry
     ewald contribution        =      86.35198394 Ry
     smearing contrib. (-TS)   =      -0.12123313 Ry

     convergence has been achieved in  14 iterations

     Forces acting on atoms (cartesian axes, Ry/au):

     atom    1 type  1   force =     0.00403670   -0.00302936    0.00000000
     atom    2 type  1   force =    -0.00001064    0.00950309    0.00000000
     atom    3 type  1   force =    -0.00403809   -0.00306413    0.00000000
     atom    4 type  1   force =     0.01931431    0.01117634    0.00000000
     atom    5 type  1   force =    -0.00060168    0.00500742    0.00000000
     atom    6 type  1   force =     0.00058824    0.00035946    0.00000000
     atom    7 type  1   force =    -0.00002203   -0.00002252    0.00000000
     atom    8 type  1   force =    -0.00059805    0.00037744    0.00000000
     atom    9 type  1   force =     0.00001847   -0.00000424    0.00000000
     atom   10 type  1   force =     0.00821086   -0.00476423    0.00000000
     atom   11 type  1   force =    -0.00466860   -0.00197952    0.00000000
     atom   12 type  1   force =     0.00000981   -0.00071819    0.00000000
     atom   13 type  1   force =    -0.01930426    0.01115172    0.00000000
     atom   14 type  1   force =     0.00064878    0.00500984    0.00000000
     atom   15 type  1   force =    -0.00002418   -0.02226932    0.00000000
     atom   16 type  1   force =     0.00466906   -0.00196613    0.00000000
     atom   17 type  1   force =    -0.00822870   -0.00476766    0.00000000

     Total force =     0.043781     Total SCF correction =     0.000554


     Computing stress (Cartesian axis) and pressure

          total   stress  (Ry/bohr**3)                   (kbar)     P=   -0.80
  -0.00000820   0.00000001   0.00000000         -1.21      0.00      0.00
   0.00000001  -0.00000819   0.00000000          0.00     -1.20      0.00
   0.00000000   0.00000000   0.00000002          0.00      0.00      0.00


     BFGS Geometry Optimization

     number of scf cycles    =   1
     number of bfgs steps    =   0

     enthalpy new            =     -77.1621136675 Ry

     new trust radius        =       0.0223148679 bohr
     new conv_thr            =       0.0000010000 Ry

     new unit-cell volume =  20877.24120 a.u.^3 (  3093.68792 Ang^3 )
     density =      0.27358 g/cm^3

CELL_PARAMETERS (alat= 25.26072511)
   0.999794914   0.000000255   0.000000000
  -0.499897236   0.865847947   0.000000000
   0.000000000   0.000000000   1.496177267

ATOMIC_POSITIONS (angstrom)
Al       0.002136936   2.570458361   0.000000000
Al       2.227464526   1.291058400   0.000000000
Al       4.452770611   2.570459295   0.000000000
Al       6.692595720   1.291962997   0.000000000
Al      -2.227755006   6.432782759   0.000000000
Al       0.000344622   5.144293176   0.000000000
Al       2.227458639   6.430140901   0.000000000
Al       4.454623965   5.144322019   0.000000000
Al      -4.454863652  10.288203630   0.000000000
Al      -2.223059233   8.999654776   0.000000000
Al      -0.002436465  10.287177896   0.000000000
Al       2.227508815   9.001814738   0.000000000
Al      11.127070810   1.291969294   0.000000000
Al       6.682720509   6.432822692   0.000000000
Al       8.909834544   5.132359652   0.000000000
Al       4.457410766  10.287204313   0.000000000
Al       6.678057049   8.999691620   0.000000000



     Writing output data file 13al_planar_2x2_vcr.save/
     NEW-OLD atomic charge density approx. for the potential

     negative rho (up, down):  3.814E-07 0.000E+00
     extrapolated charge   50.97911, renormalised to   51.00000

     total cpu time spent up to now is      144.0 secs

     Self-consistent Calculation

     iteration #  1     ecut=    80.00 Ry     beta= 0.40
     Davidson diagonalization with overlap
     ethr =  1.00E-06,  avg # of iterations =  4.0

     negative rho (up, down):  1.937E-07 0.000E+00

     total cpu time spent up to now is      152.0 secs

     total energy              =     -77.16398815 Ry
     Harris-Foulkes estimate   =     -77.26490353 Ry
     estimated scf accuracy    <       0.00015259 Ry

     iteration #  2     ecut=    80.00 Ry     beta= 0.40
     Davidson diagonalization with overlap
     ethr =  2.99E-07,  avg # of iterations =  6.0

     negative rho (up, down):  1.702E-07 0.000E+00

     total cpu time spent up to now is      159.8 secs

     total energy              =     -77.16395248 Ry
     Harris-Foulkes estimate   =     -77.16415490 Ry
     estimated scf accuracy    <       0.00127934 Ry

     iteration #  3     ecut=    80.00 Ry     beta= 0.40
     Davidson diagonalization with overlap
     ethr =  2.99E-07,  avg # of iterations =  5.0

     negative rho (up, down):  1.169E-07 0.000E+00

     total cpu time spent up to now is      166.4 secs

     total energy              =     -77.16405039 Ry
     Harris-Foulkes estimate   =     -77.16406204 Ry
     estimated scf accuracy    <       0.00005292 Ry

     iteration #  4     ecut=    80.00 Ry     beta= 0.40
     Davidson diagonalization with overlap
     ethr =  1.04E-07,  avg # of iterations =  3.0

     negative rho (up, down):  8.078E-08 0.000E+00

     total cpu time spent up to now is      171.7 secs

     total energy              =     -77.16405401 Ry
     Harris-Foulkes estimate   =     -77.16405866 Ry
     estimated scf accuracy    <       0.00001792 Ry

     iteration #  5     ecut=    80.00 Ry     beta= 0.40
     Davidson diagonalization with overlap
     ethr =  3.51E-08,  avg # of iterations =  2.0

     negative rho (up, down):  3.615E-08 0.000E+00

     total cpu time spent up to now is      176.9 secs

     total energy              =     -77.16405610 Ry
     Harris-Foulkes estimate   =     -77.16405772 Ry
     estimated scf accuracy    <       0.00000704 Ry

     iteration #  6     ecut=    80.00 Ry     beta= 0.40
     Davidson diagonalization with overlap
     ethr =  1.38E-08,  avg # of iterations =  4.0

     negative rho (up, down):  1.808E-08 0.000E+00

     total cpu time spent up to now is      182.5 secs

     total energy              =     -77.16405659 Ry
     Harris-Foulkes estimate   =     -77.16405817 Ry
     estimated scf accuracy    <       0.00000807 Ry

     iteration #  7     ecut=    80.00 Ry     beta= 0.40
     Davidson diagonalization with overlap
     ethr =  1.38E-08,  avg # of iterations =  3.0

     total cpu time spent up to now is      187.5 secs

     End of self-consistent calculation

          k = 0.0000 0.0000 0.0000 (252395 PWs)   bands (ev):

    -9.9966  -9.1520  -9.0997  -9.0994  -9.0559  -9.0556  -8.4043  -7.5361
    -7.4658  -7.4657  -6.7341  -5.8838  -5.8721  -5.8719  -5.6132  -5.6130
    -4.7565  -4.7564  -4.0022  -3.5553  -3.2993  -3.2865  -3.2864  -3.2413
    -3.1452  -3.1123  -3.1120  -3.0977  -3.0974  -2.7449  -2.7449

     the Fermi energy is    -3.1122 ev

!    total energy              =     -77.16405720 Ry
     Harris-Foulkes estimate   =     -77.16405760 Ry
     estimated scf accuracy    <       0.00000064 Ry

     The total energy is the sum of the following terms:

     one-electron contribution =    -269.17441615 Ry
     hartree contribution      =     139.27876403 Ry
     xc contribution           =     -33.51204891 Ry
     ewald contribution        =      86.36384414 Ry
     smearing contrib. (-TS)   =      -0.12020032 Ry

     convergence has been achieved in   7 iterations

     Forces acting on atoms (cartesian axes, Ry/au):

     atom    1 type  1   force =     0.00249968   -0.00314304    0.00000000
     atom    2 type  1   force =    -0.00002555    0.00789852    0.00000000
     atom    3 type  1   force =    -0.00248180   -0.00318172    0.00000000
     atom    4 type  1   force =     0.01913580    0.01106530    0.00000000
     atom    5 type  1   force =    -0.00147872    0.00374311    0.00000000
     atom    6 type  1   force =     0.00024692    0.00012346    0.00000000
     atom    7 type  1   force =    -0.00002070    0.00001522    0.00000000
     atom    8 type  1   force =    -0.00025265    0.00013446    0.00000000
     atom    9 type  1   force =     0.00002334   -0.00000907    0.00000000
     atom   10 type  1   force =     0.00681516   -0.00394358    0.00000000
     atom   11 type  1   force =    -0.00400407   -0.00058383    0.00000000
     atom   12 type  1   force =     0.00001179   -0.00029152    0.00000000
     atom   13 type  1   force =    -0.01912637    0.01105697    0.00000000
     atom   14 type  1   force =     0.00151590    0.00373383    0.00000000
     atom   15 type  1   force =     0.00000127   -0.02209836    0.00000000
     atom   16 type  1   force =     0.00398740   -0.00058571    0.00000000
     atom   17 type  1   force =    -0.00684741   -0.00393406    0.00000000

     Total force =     0.041827     Total SCF correction =     0.000470


     Computing stress (Cartesian axis) and pressure

          total   stress  (Ry/bohr**3)                   (kbar)     P=   -0.87
  -0.00000885   0.00000001   0.00000000         -1.30      0.00      0.00
   0.00000001  -0.00000886   0.00000000          0.00     -1.30      0.00
   0.00000000   0.00000000   0.00000004          0.00      0.00      0.01


     number of scf cycles    =   2
     number of bfgs steps    =   1

     enthalpy old            =     -77.1621136675 Ry
     enthalpy new            =     -77.1640572002 Ry

     CASE: enthalpy_new < enthalpy_old


     WARNING: bfgs curvature condition failed, Theta= 0.838
     new trust radius        =       0.0334654473 bohr
     new conv_thr            =       0.0000010000 Ry

     new unit-cell volume =  20863.81313 a.u.^3 (  3091.69809 Ang^3 )
     density =      0.27375 g/cm^3

CELL_PARAMETERS (alat= 25.26072511)
   0.999473227   0.000000550   0.000000000
  -0.499736138   0.865569393   0.000000000
   0.000000000   0.000000000   1.496177267

ATOMIC_POSITIONS (angstrom)
Al       0.004727828   2.567170484   0.000000000
Al       2.226733657   1.297564939   0.000000000
Al       4.448754612   2.567143414   0.000000000
Al       6.705767082   1.300413922   0.000000000
Al      -2.227873861   6.434189644   0.000000000
Al       0.000675685   5.142829323   0.000000000
Al       2.226726827   6.428071443   0.000000000
Al       4.452856381   5.142870953   0.000000000
Al      -4.453410546  10.284888872   0.000000000
Al      -2.216365221   8.993297225   0.000000000
Al      -0.005883243  10.282861594   0.000000000
Al       2.226803388   8.998522500   0.000000000
Al      11.108174461   1.300408523   0.000000000
Al       6.681443263   6.434229343   0.000000000
Al       8.906960391   5.113028876   0.000000000
Al       4.459423584  10.282893768   0.000000000
Al       6.669914831   8.993339227   0.000000000



     Writing output data file 13al_planar_2x2_vcr.save/
     NEW-OLD atomic charge density approx. for the potential

     negative rho (up, down):  6.045E-07 0.000E+00
     extrapolated charge   50.96720, renormalised to   51.00000

     total cpu time spent up to now is      233.9 secs

     Self-consistent Calculation

     iteration #  1     ecut=    80.00 Ry     beta= 0.40
     Davidson diagonalization with overlap
     ethr =  1.00E-06,  avg # of iterations =  4.0

     negative rho (up, down):  3.121E-07 0.000E+00

     total cpu time spent up to now is      241.5 secs

     total energy              =     -77.16666694 Ry
     Harris-Foulkes estimate   =     -77.32513663 Ry
     estimated scf accuracy    <       0.00026289 Ry

     iteration #  2     ecut=    80.00 Ry     beta= 0.40
     Davidson diagonalization with overlap
     ethr =  5.15E-07,  avg # of iterations =  6.0

     negative rho (up, down):  2.693E-07 0.000E+00

     total cpu time spent up to now is      248.0 secs

     total energy              =     -77.16665061 Ry
     Harris-Foulkes estimate   =     -77.16692362 Ry
     estimated scf accuracy    <       0.00153340 Ry

     iteration #  3     ecut=    80.00 Ry     beta= 0.40
     Davidson diagonalization with overlap
     ethr =  5.15E-07,  avg # of iterations =  4.0

     negative rho (up, down):  2.001E-07 0.000E+00

     total cpu time spent up to now is      253.5 secs

     total energy              =     -77.16677301 Ry
     Harris-Foulkes estimate   =     -77.16680082 Ry
     estimated scf accuracy    <       0.00013015 Ry

     iteration #  4     ecut=    80.00 Ry     beta= 0.40
     Davidson diagonalization with overlap
     ethr =  2.55E-07,  avg # of iterations =  3.0

     negative rho (up, down):  1.407E-07 0.000E+00

     total cpu time spent up to now is      258.1 secs

     total energy              =     -77.16678138 Ry
     Harris-Foulkes estimate   =     -77.16679055 Ry
     estimated scf accuracy    <       0.00003764 Ry

     iteration #  5     ecut=    80.00 Ry     beta= 0.40
     Davidson diagonalization with overlap
     ethr =  7.38E-08,  avg # of iterations =  3.0

     negative rho (up, down):  5.780E-08 0.000E+00

     total cpu time spent up to now is      262.8 secs

     total energy              =     -77.16678526 Ry
     Harris-Foulkes estimate   =     -77.16678879 Ry
     estimated scf accuracy    <       0.00001524 Ry

     iteration #  6     ecut=    80.00 Ry     beta= 0.40
     Davidson diagonalization with overlap
     ethr =  2.99E-08,  avg # of iterations =  5.0

     negative rho (up, down):  2.977E-08 0.000E+00

     total cpu time spent up to now is      268.2 secs

     total energy              =     -77.16678565 Ry
     Harris-Foulkes estimate   =     -77.16679069 Ry
     estimated scf accuracy    <       0.00002901 Ry

     iteration #  7     ecut=    80.00 Ry     beta= 0.40
     Davidson diagonalization with overlap
     ethr =  2.99E-08,  avg # of iterations =  4.0

     negative rho (up, down):  1.676E-08 0.000E+00

     total cpu time spent up to now is      272.9 secs

     total energy              =     -77.16678831 Ry
     Harris-Foulkes estimate   =     -77.16678858 Ry
     estimated scf accuracy    <       0.00000152 Ry

     iteration #  8     ecut=    80.00 Ry     beta= 0.40
     Davidson diagonalization with overlap
     ethr =  2.98E-09,  avg # of iterations =  4.0

     total cpu time spent up to now is      278.5 secs

     End of self-consistent calculation

          k = 0.0000 0.0000 0.0000 (252395 PWs)   bands (ev):

    -9.9960  -9.1474  -9.1020  -9.1019  -9.0488  -9.0486  -8.3976  -7.5323
    -7.4629  -7.4627  -6.7446  -5.8809  -5.8613  -5.8612  -5.6178  -5.6177
    -4.7625  -4.7624  -4.0013  -3.5881  -3.2846  -3.2803  -3.2802  -3.2487
    -3.1409  -3.1122  -3.1121  -3.0933  -3.0931  -2.7351  -2.7350

     the Fermi energy is    -3.1095 ev

!    total energy              =     -77.16678828 Ry
     Harris-Foulkes estimate   =     -77.16678869 Ry
     estimated scf accuracy    <       0.00000067 Ry

     The total energy is the sum of the following terms:

     one-electron contribution =    -269.23239888 Ry
     hartree contribution      =     139.30363293 Ry
     xc contribution           =     -33.50461357 Ry
     ewald contribution        =      86.38527048 Ry
     smearing contrib. (-TS)   =      -0.11867925 Ry

     convergence has been achieved in   8 iterations

     Forces acting on atoms (cartesian axes, Ry/au):

     atom    1 type  1   force =     0.00042229   -0.00326214    0.00000000
     atom    2 type  1   force =    -0.00000185    0.00574852    0.00000000
     atom    3 type  1   force =    -0.00040305   -0.00328370    0.00000000
     atom    4 type  1   force =     0.01886885    0.01089523    0.00000000
     atom    5 type  1   force =    -0.00262238    0.00197672    0.00000000
     atom    6 type  1   force =    -0.00029550   -0.00018259    0.00000000
     atom    7 type  1   force =    -0.00000515   -0.00000137    0.00000000
     atom    8 type  1   force =     0.00027869   -0.00018072    0.00000000
     atom    9 type  1   force =     0.00001144    0.00000695    0.00000000
     atom   10 type  1   force =     0.00496655   -0.00286342    0.00000000
     atom   11 type  1   force =    -0.00302940    0.00130166    0.00000000
     atom   12 type  1   force =    -0.00000964    0.00034494    0.00000000
     atom   13 type  1   force =    -0.01888460    0.01091008    0.00000000
     atom   14 type  1   force =     0.00262892    0.00199256    0.00000000
     atom   15 type  1   force =     0.00000725   -0.02181439    0.00000000
     atom   16 type  1   force =     0.00303244    0.00127763    0.00000000
     atom   17 type  1   force =    -0.00496484   -0.00286597    0.00000000

     Total force =     0.039881     Total SCF correction =     0.000537


     Computing stress (Cartesian axis) and pressure

          total   stress  (Ry/bohr**3)                   (kbar)     P=   -0.96
  -0.00000981   0.00000001   0.00000000         -1.44      0.00      0.00
   0.00000001  -0.00000981   0.00000000          0.00     -1.44      0.00
   0.00000000   0.00000000   0.00000006          0.00      0.00      0.01


     number of scf cycles    =   3
     number of bfgs steps    =   2

     enthalpy old            =     -77.1640572002 Ry
     enthalpy new            =     -77.1667882829 Ry

     CASE: enthalpy_new < enthalpy_old

     new trust radius        =       0.0501820350 bohr
     new conv_thr            =       0.0000010000 Ry

     new unit-cell volume =  20842.34941 a.u.^3 (  3088.51749 Ang^3 )
     density =      0.27404 g/cm^3

CELL_PARAMETERS (alat= 25.26072511)
   0.998958673   0.000001055   0.000000000
  -0.499478423   0.865124070   0.000000000
   0.000000000   0.000000000   1.496177267

ATOMIC_POSITIONS (angstrom)
Al       0.007342800   2.562060245   0.000000000
Al       2.225582880   1.306010714   0.000000000
Al       4.443859306   2.562002941   0.000000000
Al       6.725292807   1.313029914   0.000000000
Al      -2.228700600   6.435024443   0.000000000
Al       0.000833239   5.140281827   0.000000000
Al       2.225568376   6.424749793   0.000000000
Al       4.450394209   5.140337354   0.000000000
Al      -4.451095705  10.279601221   0.000000000
Al      -2.207345875   8.984114205   0.000000000
Al      -0.010474414  10.277228078   0.000000000
Al       2.225660001   8.993695150   0.000000000
Al      11.079473830   1.313021611   0.000000000
Al       6.680014328   6.435082010   0.000000000
Al       8.902366327   5.083876251   0.000000000
Al       4.461736752  10.277255315   0.000000000
Al       6.658605219   8.984155539   0.000000000



     Writing output data file 13al_planar_2x2_vcr.save/
     NEW-OLD atomic charge density approx. for the potential

     negative rho (up, down):  9.301E-07 0.000E+00
     extrapolated charge   50.94752, renormalised to   51.00000

     total cpu time spent up to now is      324.7 secs

     Self-consistent Calculation

     iteration #  1     ecut=    80.00 Ry     beta= 0.40
     Davidson diagonalization with overlap
     ethr =  1.00E-06,  avg # of iterations =  6.0

     negative rho (up, down):  4.862E-07 0.000E+00

     total cpu time spent up to now is      332.9 secs

     total energy              =     -77.17038642 Ry
     Harris-Foulkes estimate   =     -77.42404306 Ry
     estimated scf accuracy    <       0.00042486 Ry

     iteration #  2     ecut=    80.00 Ry     beta= 0.40
     Davidson diagonalization with overlap
     ethr =  8.33E-07,  avg # of iterations =  5.0

     negative rho (up, down):  4.138E-07 0.000E+00

     total cpu time spent up to now is      339.3 secs

     total energy              =     -77.17042745 Ry
     Harris-Foulkes estimate   =     -77.17080378 Ry
     estimated scf accuracy    <       0.00197513 Ry

     iteration #  3     ecut=    80.00 Ry     beta= 0.40
     Davidson diagonalization with overlap
     ethr =  8.33E-07,  avg # of iterations =  4.0

     negative rho (up, down):  3.158E-07 0.000E+00

     total cpu time spent up to now is      344.7 secs

     total energy              =     -77.17058264 Ry
     Harris-Foulkes estimate   =     -77.17062021 Ry
     estimated scf accuracy    <       0.00017308 Ry

     iteration #  4     ecut=    80.00 Ry     beta= 0.40
     Davidson diagonalization with overlap
     ethr =  3.39E-07,  avg # of iterations =  5.0

     negative rho (up, down):  2.268E-07 0.000E+00

     total cpu time spent up to now is      349.5 secs

     total energy              =     -77.17058963 Ry
     Harris-Foulkes estimate   =     -77.17060809 Ry
     estimated scf accuracy    <       0.00008699 Ry

     iteration #  5     ecut=    80.00 Ry     beta= 0.40
     Davidson diagonalization with overlap
     ethr =  1.71E-07,  avg # of iterations =  4.0

     negative rho (up, down):  6.110E-08 0.000E+00

     total cpu time spent up to now is      354.1 secs

     total energy              =     -77.17059596 Ry
     Harris-Foulkes estimate   =     -77.17060211 Ry
     estimated scf accuracy    <       0.00003103 Ry

     iteration #  6     ecut=    80.00 Ry     beta= 0.40
     Davidson diagonalization with overlap
     ethr =  6.08E-08,  avg # of iterations =  3.0

     negative rho (up, down):  3.600E-08 0.000E+00

     total cpu time spent up to now is      359.0 secs

     total energy              =     -77.17059814 Ry
     Harris-Foulkes estimate   =     -77.17060283 Ry
     estimated scf accuracy    <       0.00002167 Ry

     iteration #  7     ecut=    80.00 Ry     beta= 0.40
     Davidson diagonalization with overlap
     ethr =  4.25E-08,  avg # of iterations =  2.0

     negative rho (up, down):  2.487E-08 0.000E+00

     total cpu time spent up to now is      363.3 secs

     total energy              =     -77.17060068 Ry
     Harris-Foulkes estimate   =     -77.17060152 Ry
     estimated scf accuracy    <       0.00000405 Ry

     iteration #  8     ecut=    80.00 Ry     beta= 0.40
     Davidson diagonalization with overlap
     ethr =  7.93E-09,  avg # of iterations =  5.0

     negative rho (up, down):  1.749E-08 0.000E+00

     total cpu time spent up to now is      368.8 secs

     total energy              =     -77.17060106 Ry
     Harris-Foulkes estimate   =     -77.17060165 Ry
     estimated scf accuracy    <       0.00000317 Ry

     iteration #  9     ecut=    80.00 Ry     beta= 0.40
     Davidson diagonalization with overlap
     ethr =  6.22E-09,  avg # of iterations =  2.0

     total cpu time spent up to now is      373.1 secs

     End of self-consistent calculation

          k = 0.0000 0.0000 0.0000 (252395 PWs)   bands (ev):

    -9.9956  -9.1420  -9.1059  -9.1055  -9.0387  -9.0384  -8.3908  -7.5268
    -7.4587  -7.4587  -6.7602  -5.8762  -5.8472  -5.8470  -5.6241  -5.6239
    -4.7716  -4.7715  -4.0002  -3.6399  -3.2713  -3.2712  -3.2665  -3.2548
    -3.1354  -3.1137  -3.1134  -3.0856  -3.0854  -2.7216  -2.7215

     the Fermi energy is    -3.1054 ev

!    total energy              =     -77.17060093 Ry
     Harris-Foulkes estimate   =     -77.17060141 Ry
     estimated scf accuracy    <       0.00000080 Ry

     The total energy is the sum of the following terms:

     one-electron contribution =    -269.33274568 Ry
     hartree contribution      =     139.34746088 Ry
     xc contribution           =     -33.49416330 Ry
     ewald contribution        =      86.42535076 Ry
     smearing contrib. (-TS)   =      -0.11650358 Ry

     convergence has been achieved in   9 iterations

     Forces acting on atoms (cartesian axes, Ry/au):

     atom    1 type  1   force =    -0.00245299   -0.00338128    0.00000000
     atom    2 type  1   force =    -0.00002092    0.00292205    0.00000000
     atom    3 type  1   force =     0.00244690   -0.00338216    0.00000000
     atom    4 type  1   force =     0.01848147    0.01067110    0.00000000
     atom    5 type  1   force =    -0.00415523   -0.00043023    0.00000000
     atom    6 type  1   force =    -0.00099398   -0.00057034    0.00000000
     atom    7 type  1   force =    -0.00000681   -0.00001663    0.00000000
     atom    8 type  1   force =     0.00099957   -0.00055770    0.00000000
     atom    9 type  1   force =     0.00000653    0.00000022    0.00000000
     atom   10 type  1   force =     0.00252031   -0.00148116    0.00000000
     atom   11 type  1   force =    -0.00171416    0.00381044    0.00000000
     atom   12 type  1   force =     0.00001451    0.00115123    0.00000000
     atom   13 type  1   force =    -0.01845660    0.01065777    0.00000000
     atom   14 type  1   force =     0.00414984   -0.00045067    0.00000000
     atom   15 type  1   force =     0.00000308   -0.02131150    0.00000000
     atom   16 type  1   force =     0.00170007    0.00382641    0.00000000
     atom   17 type  1   force =    -0.00252161   -0.00145757    0.00000000

     Total force =     0.038705     Total SCF correction =     0.000582


     Computing stress (Cartesian axis) and pressure

          total   stress  (Ry/bohr**3)                   (kbar)     P=   -1.09
  -0.00001116  -0.00000000   0.00000000         -1.64     -0.00      0.00
  -0.00000000  -0.00001116   0.00000000         -0.00     -1.64      0.00
   0.00000000   0.00000000   0.00000007          0.00      0.00      0.01


     number of scf cycles    =   4
     number of bfgs steps    =   3

     enthalpy old            =     -77.1667882829 Ry
     enthalpy new            =     -77.1706009309 Ry

     CASE: enthalpy_new < enthalpy_old

     new trust radius        =       0.0752342790 bohr
     new conv_thr            =       0.0000010000 Ry

     new unit-cell volume =  20808.50158 a.u.^3 (  3083.50176 Ang^3 )
     density =      0.27448 g/cm^3

CELL_PARAMETERS (alat= 25.26072511)
   0.998146843   0.000001591   0.000000000
  -0.499072043   0.864421341   0.000000000
   0.000000000   0.000000000   1.496177267

ATOMIC_POSITIONS (angstrom)
Al       0.009718644   2.554207268   0.000000000
Al       2.223751824   1.317178034   0.000000000
Al       4.437864534   2.554115463   0.000000000
Al       6.754267343   1.331876595   0.000000000
Al      -2.230692338   6.434740664   0.000000000
Al       0.000692396   5.136049062   0.000000000
Al       2.223736549   6.419496863   0.000000000
Al       4.446914246   5.136133816   0.000000000
Al      -4.447449403  10.271249990   0.000000000
Al      -2.194985228   8.970678798   0.000000000
Al      -0.016681821  10.269712090   0.000000000
Al       2.223873418   8.986521183   0.000000000
Al      11.036055176   1.331838804   0.000000000
Al       6.678438684   6.434795384   0.000000000
Al       8.895111850   5.040036394   0.000000000
Al       4.464331017  10.269762856   0.000000000
Al       6.642620975   8.970735909   0.000000000



     Writing output data file 13al_planar_2x2_vcr.save/
     NEW-OLD atomic charge density approx. for the potential

     negative rho (up, down):  1.409E-06 0.000E+00
     extrapolated charge   50.91711, renormalised to   51.00000

     total cpu time spent up to now is      419.3 secs

     Self-consistent Calculation

     iteration #  1     ecut=    80.00 Ry     beta= 0.40
     Davidson diagonalization with overlap
     ethr =  1.00E-06,  avg # of iterations =  7.0

     negative rho (up, down):  7.497E-07 0.000E+00

     total cpu time spent up to now is      428.1 secs

     total energy              =     -77.17534320 Ry
     Harris-Foulkes estimate   =     -77.57643854 Ry
     estimated scf accuracy    <       0.00099063 Ry

     iteration #  2     ecut=    80.00 Ry     beta= 0.40
     Davidson diagonalization with overlap
     ethr =  1.94E-06,  avg # of iterations =  5.0

     negative rho (up, down):  6.400E-07 0.000E+00

     total cpu time spent up to now is      434.6 secs

     total energy              =     -77.17546753 Ry
     Harris-Foulkes estimate   =     -77.17643513 Ry
     estimated scf accuracy    <       0.00516121 Ry

     iteration #  3     ecut=    80.00 Ry     beta= 0.40
     Davidson diagonalization with overlap
     ethr =  1.94E-06,  avg # of iterations =  4.0

     negative rho (up, down):  5.147E-07 0.000E+00

     total cpu time spent up to now is      440.2 secs

     total energy              =     -77.17585313 Ry
     Harris-Foulkes estimate   =     -77.17593301 Ry
     estimated scf accuracy    <       0.00039779 Ry

     iteration #  4     ecut=    80.00 Ry     beta= 0.40
     Davidson diagonalization with overlap
     ethr =  7.80E-07,  avg # of iterations =  4.0

     negative rho (up, down):  3.844E-07 0.000E+00

     total cpu time spent up to now is      444.9 secs

     total energy              =     -77.17586818 Ry
     Harris-Foulkes estimate   =     -77.17590590 Ry
     estimated scf accuracy    <       0.00020932 Ry

     iteration #  5     ecut=    80.00 Ry     beta= 0.40
     Davidson diagonalization with overlap
     ethr =  4.10E-07,  avg # of iterations =  3.0

     negative rho (up, down):  7.123E-08 0.000E+00

     total cpu time spent up to now is      449.3 secs

     total energy              =     -77.17587263 Ry
     Harris-Foulkes estimate   =     -77.17588908 Ry
     estimated scf accuracy    <       0.00006910 Ry

     iteration #  6     ecut=    80.00 Ry     beta= 0.40
     Davidson diagonalization with overlap
     ethr =  1.35E-07,  avg # of iterations =  5.0

     negative rho (up, down):  4.710E-08 0.000E+00

     total cpu time spent up to now is      455.0 secs

     total energy              =     -77.17588002 Ry
     Harris-Foulkes estimate   =     -77.17589292 Ry
     estimated scf accuracy    <       0.00007376 Ry

     iteration #  7     ecut=    80.00 Ry     beta= 0.40
     Davidson diagonalization with overlap
     ethr =  1.35E-07,  avg # of iterations =  3.0

     negative rho (up, down):  3.585E-08 0.000E+00

     total cpu time spent up to now is      459.6 secs

     total energy              =     -77.17588524 Ry
     Harris-Foulkes estimate   =     -77.17588774 Ry
     estimated scf accuracy    <       0.00001236 Ry

     iteration #  8     ecut=    80.00 Ry     beta= 0.40
     Davidson diagonalization with overlap
     ethr =  2.42E-08,  avg # of iterations =  2.0

     negative rho (up, down):  1.641E-08 0.000E+00

     total cpu time spent up to now is      464.1 secs

     total energy              =     -77.17588548 Ry
     Harris-Foulkes estimate   =     -77.17588638 Ry
     estimated scf accuracy    <       0.00000352 Ry

     iteration #  9     ecut=    80.00 Ry     beta= 0.40
     Davidson diagonalization with overlap
     ethr =  6.89E-09,  avg # of iterations =  6.0

     total cpu time spent up to now is      469.8 secs

     total energy              =     -77.17588592 Ry
     Harris-Foulkes estimate   =     -77.17588674 Ry
     estimated scf accuracy    <       0.00000543 Ry

     iteration # 10     ecut=    80.00 Ry     beta= 0.40
     Davidson diagonalization with overlap
     ethr =  6.89E-09,  avg # of iterations =  2.0

     total cpu time spent up to now is      475.0 secs

     total energy              =     -77.17588622 Ry
     Harris-Foulkes estimate   =     -77.17588637 Ry
     estimated scf accuracy    <       0.00000103 Ry

     iteration # 11     ecut=    80.00 Ry     beta= 0.40
     Davidson diagonalization with overlap
     ethr =  2.01E-09,  avg # of iterations =  4.0

     total cpu time spent up to now is      480.6 secs

     End of self-consistent calculation

          k = 0.0000 0.0000 0.0000 (252395 PWs)   bands (ev):

    -9.9943  -9.1334  -9.1101  -9.1099  -9.0239  -9.0237  -8.3842  -7.5176
    -7.4521  -7.4521  -6.7838  -5.8673  -5.8274  -5.8274  -5.6320  -5.6319
    -4.7846  -4.7846  -3.9979  -3.7243  -3.2733  -3.2565  -3.2565  -3.2268
    -3.1265  -3.1149  -3.1147  -3.0739  -3.0738  -2.7019  -2.7018

     the Fermi energy is    -3.0976 ev

!    total energy              =     -77.17588621 Ry
     Harris-Foulkes estimate   =     -77.17588633 Ry
     estimated scf accuracy    <       0.00000019 Ry

     The total energy is the sum of the following terms:

     one-electron contribution =    -269.49998433 Ry
     hartree contribution      =     139.41895855 Ry
     xc contribution           =     -33.47898691 Ry
     ewald contribution        =      86.49775678 Ry
     smearing contrib. (-TS)   =      -0.11363030 Ry

     convergence has been achieved in  11 iterations

     Forces acting on atoms (cartesian axes, Ry/au):

     atom    1 type  1   force =    -0.00642715   -0.00335517    0.00000000
     atom    2 type  1   force =    -0.00000036   -0.00083416    0.00000000
     atom    3 type  1   force =     0.00642533   -0.00333531    0.00000000
     atom    4 type  1   force =     0.01751110    0.01010023    0.00000000
     atom    5 type  1   force =    -0.00613519   -0.00388466    0.00000000
     atom    6 type  1   force =    -0.00189264   -0.00109884    0.00000000
     atom    7 type  1   force =     0.00000246    0.00000316    0.00000000
     atom    8 type  1   force =     0.00189489   -0.00111374    0.00000000
     atom    9 type  1   force =    -0.00000195    0.00000396    0.00000000
     atom   10 type  1   force =    -0.00071296    0.00041329    0.00000000
     atom   11 type  1   force =     0.00031410    0.00723706    0.00000000
     atom   12 type  1   force =    -0.00000739    0.00219433    0.00000000
     atom   13 type  1   force =    -0.01750327    0.01010158    0.00000000
     atom   14 type  1   force =     0.00611478   -0.00389247    0.00000000
     atom   15 type  1   force =     0.00001287   -0.02019856    0.00000000
     atom   16 type  1   force =    -0.00031437    0.00724025    0.00000000
     atom   17 type  1   force =     0.00071975    0.00041905    0.00000000

     Total force =     0.039456     Total SCF correction =     0.000354


     Computing stress (Cartesian axis) and pressure

          total   stress  (Ry/bohr**3)                   (kbar)     P=   -1.29
  -0.00001310   0.00000000   0.00000000         -1.93      0.00      0.00
   0.00000000  -0.00001311   0.00000000          0.00     -1.93      0.00
   0.00000000   0.00000000  -0.00000000          0.00      0.00     -0.00


     number of scf cycles    =   5
     number of bfgs steps    =   4

     enthalpy old            =     -77.1706009309 Ry
     enthalpy new            =     -77.1758862102 Ry

     CASE: enthalpy_new < enthalpy_old

     new trust radius        =       0.1127597792 bohr
     new conv_thr            =       0.0000010000 Ry

     new unit-cell volume =  20755.15385 a.u.^3 (  3075.59644 Ang^3 )
     density =      0.27519 g/cm^3

CELL_PARAMETERS (alat= 25.26072511)
   0.996866270   0.000002535   0.000000000
  -0.498430940   0.863312298   0.000000000
   0.000000000   0.000000000   1.496177267

ATOMIC_POSITIONS (angstrom)
Al       0.011260565   2.542248266   0.000000000
Al       2.220879838   1.332139164   0.000000000
Al       4.430619358   2.542114751   0.000000000
Al       6.797197584   1.359997682   0.000000000
Al      -2.234575648   6.432165148   0.000000000
Al       0.000033435   5.129108365   0.000000000
Al       2.220853517   6.411225851   0.000000000
Al       4.441859627   5.129218524   0.000000000
Al      -4.441702172  10.258071582   0.000000000
Al      -2.177770656   8.950822241   0.000000000
Al      -0.024985449  10.259543841   0.000000000
Al       2.221039477   8.975706548   0.000000000
Al      10.970326539   1.359924520   0.000000000
Al       6.676690177   6.432227278   0.000000000
Al       8.883674971   4.974076406   0.000000000
Al       4.466948182  10.259621585   0.000000000
Al       6.619694905   8.950888886   0.000000000



     Writing output data file 13al_planar_2x2_vcr.save/
     NEW-OLD atomic charge density approx. for the potential

     negative rho (up, down):  2.103E-06 0.000E+00
     extrapolated charge   50.86902, renormalised to   51.00000

     total cpu time spent up to now is      527.8 secs

     Self-consistent Calculation

     iteration #  1     ecut=    80.00 Ry     beta= 0.40
     Davidson diagonalization with overlap
     ethr =  1.00E-06,  avg # of iterations =  8.0

     negative rho (up, down):  1.139E-06 0.000E+00

     total cpu time spent up to now is      537.7 secs

     total energy              =     -77.18112489 Ry
     Harris-Foulkes estimate   =     -77.81652265 Ry
     estimated scf accuracy    <       0.00310158 Ry

     iteration #  2     ecut=    80.00 Ry     beta= 0.40
     Davidson diagonalization with overlap
     ethr =  6.08E-06,  avg # of iterations =  5.0

     negative rho (up, down):  9.665E-07 0.000E+00

     total cpu time spent up to now is      543.9 secs

     total energy              =     -77.18154070 Ry
     Harris-Foulkes estimate   =     -77.18469112 Ry
     estimated scf accuracy    <       0.01638820 Ry

     iteration #  3     ecut=    80.00 Ry     beta= 0.40
     Davidson diagonalization with overlap
     ethr =  6.08E-06,  avg # of iterations =  3.0

     negative rho (up, down):  7.849E-07 0.000E+00

     total cpu time spent up to now is      549.4 secs

     total energy              =     -77.18280775 Ry
     Harris-Foulkes estimate   =     -77.18297584 Ry
     estimated scf accuracy    <       0.00088224 Ry

     iteration #  4     ecut=    80.00 Ry     beta= 0.40
     Davidson diagonalization with overlap
     ethr =  1.73E-06,  avg # of iterations =  5.0

     negative rho (up, down):  6.154E-07 0.000E+00

     total cpu time spent up to now is      554.3 secs

     total energy              =     -77.18284171 Ry
     Harris-Foulkes estimate   =     -77.18292622 Ry
     estimated scf accuracy    <       0.00053001 Ry

     iteration #  5     ecut=    80.00 Ry     beta= 0.40
     Davidson diagonalization with overlap
     ethr =  1.04E-06,  avg # of iterations =  4.0

     negative rho (up, down):  6.790E-08 0.000E+00

     total cpu time spent up to now is      558.8 secs

     total energy              =     -77.18282982 Ry
     Harris-Foulkes estimate   =     -77.18288474 Ry
     estimated scf accuracy    <       0.00019698 Ry

     iteration #  6     ecut=    80.00 Ry     beta= 0.40
     Davidson diagonalization with overlap
     ethr =  3.86E-07,  avg # of iterations =  4.0

     negative rho (up, down):  4.495E-08 0.000E+00

     total cpu time spent up to now is      564.9 secs

     total energy              =     -77.18287328 Ry
     Harris-Foulkes estimate   =     -77.18288600 Ry
     estimated scf accuracy    <       0.00007424 Ry

     iteration #  7     ecut=    80.00 Ry     beta= 0.40
     Davidson diagonalization with overlap
     ethr =  1.46E-07,  avg # of iterations =  2.0

     negative rho (up, down):  3.763E-08 0.000E+00

     total cpu time spent up to now is      570.1 secs

     total energy              =     -77.18287395 Ry
     Harris-Foulkes estimate   =     -77.18287940 Ry
     estimated scf accuracy    <       0.00003781 Ry

     iteration #  8     ecut=    80.00 Ry     beta= 0.40
     Davidson diagonalization with overlap
     ethr =  7.41E-08,  avg # of iterations =  1.0

     negative rho (up, down):  1.428E-08 0.000E+00

     total cpu time spent up to now is      575.0 secs

     total energy              =     -77.18287087 Ry
     Harris-Foulkes estimate   =     -77.18287615 Ry
     estimated scf accuracy    <       0.00001745 Ry

     iteration #  9     ecut=    80.00 Ry     beta= 0.40
     Davidson diagonalization with overlap
     ethr =  3.42E-08,  avg # of iterations =  3.0

     total cpu time spent up to now is      580.5 secs

     total energy              =     -77.18287382 Ry
     Harris-Foulkes estimate   =     -77.18287511 Ry
     estimated scf accuracy    <       0.00000963 Ry

     iteration # 10     ecut=    80.00 Ry     beta= 0.40
     Davidson diagonalization with overlap
     ethr =  1.89E-08,  avg # of iterations =  3.0

     total cpu time spent up to now is      585.8 secs

     total energy              =     -77.18287435 Ry
     Harris-Foulkes estimate   =     -77.18287462 Ry
     estimated scf accuracy    <       0.00000226 Ry

     iteration # 11     ecut=    80.00 Ry     beta= 0.40
     Davidson diagonalization with overlap
     ethr =  4.44E-09,  avg # of iterations =  3.0

     total cpu time spent up to now is      590.8 secs

     total energy              =     -77.18287402 Ry
     Harris-Foulkes estimate   =     -77.18287445 Ry
     estimated scf accuracy    <       0.00000127 Ry

     iteration # 12     ecut=    80.00 Ry     beta= 0.40
     Davidson diagonalization with overlap
     ethr =  2.49E-09,  avg # of iterations =  3.0

     total cpu time spent up to now is      596.5 secs

     End of self-consistent calculation

          k = 0.0000 0.0000 0.0000 (252395 PWs)   bands (ev):

    -9.9938  -9.1209  -9.1169  -9.1167  -9.0061  -9.0059  -8.3836  -7.5060
    -7.4441  -7.4438  -6.8239  -5.8532  -5.8031  -5.8031  -5.6446  -5.6445
    -4.8055  -4.8055  -3.9956  -3.8672  -3.2907  -3.2350  -3.2349  -3.1780
    -3.1163  -3.1162  -3.1130  -3.0596  -3.0594  -2.6764  -2.6762

     the Fermi energy is    -3.0850 ev

!    total energy              =     -77.18287394 Ry
     Harris-Foulkes estimate   =     -77.18287445 Ry
     estimated scf accuracy    <       0.00000063 Ry

     The total energy is the sum of the following terms:

     one-electron contribution =    -269.79075084 Ry
     hartree contribution      =     139.54788607 Ry
     xc contribution           =     -33.45882389 Ry
     ewald contribution        =      86.62973088 Ry
     smearing contrib. (-TS)   =      -0.11091616 Ry

     convergence has been achieved in  12 iterations

     Forces acting on atoms (cartesian axes, Ry/au):

     atom    1 type  1   force =    -0.01206570   -0.00289925    0.00000000
     atom    2 type  1   force =     0.00001219   -0.00597002    0.00000000
     atom    3 type  1   force =     0.01206335   -0.00287237    0.00000000
     atom    4 type  1   force =     0.01488195    0.00857849    0.00000000
     atom    5 type  1   force =    -0.00854041   -0.00898431    0.00000000
     atom    6 type  1   force =    -0.00315274   -0.00184814    0.00000000
     atom    7 type  1   force =     0.00001681   -0.00000344    0.00000000
     atom    8 type  1   force =     0.00317472   -0.00185646    0.00000000
     atom    9 type  1   force =    -0.00001850    0.00000725    0.00000000
     atom   10 type  1   force =    -0.00514515    0.00299839    0.00000000
     atom   11 type  1   force =     0.00351064    0.01191063    0.00000000
     atom   12 type  1   force =     0.00000101    0.00366516    0.00000000
     atom   13 type  1   force =    -0.01488667    0.00859239    0.00000000
     atom   14 type  1   force =     0.00848296   -0.00897279    0.00000000
     atom   15 type  1   force =     0.00001486   -0.01721065    0.00000000
     atom   16 type  1   force =    -0.00351064    0.01187962    0.00000000
     atom   17 type  1   force =     0.00516132    0.00298551    0.00000000

     Total force =     0.044218     Total SCF correction =     0.000610


     Computing stress (Cartesian axis) and pressure

          total   stress  (Ry/bohr**3)                   (kbar)     P=   -1.55
  -0.00001582  -0.00000000   0.00000000         -2.33     -0.00      0.00
  -0.00000000  -0.00001584   0.00000000         -0.00     -2.33      0.00
   0.00000000   0.00000000   0.00000003          0.00      0.00      0.00


     number of scf cycles    =   6
     number of bfgs steps    =   5

     enthalpy old            =     -77.1758862102 Ry
     enthalpy new            =     -77.1828739440 Ry

     CASE: enthalpy_new < enthalpy_old

     new trust radius        =       0.1689228315 bohr
     new conv_thr            =       0.0000010000 Ry

     new unit-cell volume =  20669.89618 a.u.^3 (  3062.96256 Ang^3 )
     density =      0.27632 g/cm^3

CELL_PARAMETERS (alat= 25.26072511)
   0.994816264   0.000003766   0.000000000
  -0.497404871   0.861537091   0.000000000
   0.000000000   0.000000000   1.496177267

ATOMIC_POSITIONS (angstrom)
Al       0.010244764   2.524131273   0.000000000
Al       2.216291488   1.352027097   0.000000000
Al       4.422504877   2.523930244   0.000000000
Al       6.860452023   1.401855563   0.000000000
Al      -2.241628048   6.424524583   0.000000000
Al      -0.001704654   5.117584061   0.000000000
Al       2.216246698   6.397983621   0.000000000
Al       4.434464911   5.117740725   0.000000000
Al      -4.432516968  10.236977291   0.000000000
Al      -2.153722164   8.921084481   0.000000000
Al      -0.035669069  10.245784604   0.000000000
Al       2.216509087   8.959192189   0.000000000
Al      10.870563061   1.401733860   0.000000000
Al       6.674699236   6.424612891   0.000000000
Al       8.865364201   4.874753936   0.000000000
Al       4.468522048  10.245874962   0.000000000
Al       6.586500615   8.921146303   0.000000000



     Writing output data file 13al_planar_2x2_vcr.save/
     NEW-OLD atomic charge density approx. for the potential

     negative rho (up, down):  3.534E-06 0.000E+00
     extrapolated charge   50.78981, renormalised to   51.00000

     total cpu time spent up to now is      642.7 secs

     Self-consistent Calculation

     iteration #  1     ecut=    80.00 Ry     beta= 0.40
     Davidson diagonalization with overlap
     ethr =  1.00E-06,  avg # of iterations =  9.0

     negative rho (up, down):  1.951E-06 0.000E+00

     total cpu time spent up to now is      653.4 secs

     total energy              =     -77.18581606 Ry
     Harris-Foulkes estimate   =     -78.20971720 Ry
     estimated scf accuracy    <       0.00881767 Ry

     iteration #  2     ecut=    80.00 Ry     beta= 0.40
     Davidson diagonalization with overlap
     ethr =  1.73E-05,  avg # of iterations = 11.0

     negative rho (up, down):  1.670E-06 0.000E+00

     total cpu time spent up to now is      660.2 secs

     total energy              =     -77.18628175 Ry
     Harris-Foulkes estimate   =     -77.19671074 Ry
     estimated scf accuracy    <       0.05840278 Ry

     iteration #  3     ecut=    80.00 Ry     beta= 0.40
     Davidson diagonalization with overlap
     ethr =  1.73E-05,  avg # of iterations =  4.0

     negative rho (up, down):  1.355E-06 0.000E+00

     total cpu time spent up to now is      665.8 secs

     total energy              =     -77.19040818 Ry
     Harris-Foulkes estimate   =     -77.19069755 Ry
     estimated scf accuracy    <       0.00244246 Ry

     iteration #  4     ecut=    80.00 Ry     beta= 0.40
     Davidson diagonalization with overlap
     ethr =  4.79E-06,  avg # of iterations =  3.0

     negative rho (up, down):  8.756E-07 0.000E+00

     total cpu time spent up to now is      670.3 secs

     total energy              =     -77.19026164 Ry
     Harris-Foulkes estimate   =     -77.19051363 Ry
     estimated scf accuracy    <       0.00149191 Ry

     iteration #  5     ecut=    80.00 Ry     beta= 0.40
     Davidson diagonalization with overlap
     ethr =  2.93E-06,  avg # of iterations =  1.0

     negative rho (up, down):  7.238E-08 0.000E+00

     total cpu time spent up to now is      674.6 secs

     total energy              =     -77.19008697 Ry
     Harris-Foulkes estimate   =     -77.19039624 Ry
     estimated scf accuracy    <       0.00112453 Ry

     iteration #  6     ecut=    80.00 Ry     beta= 0.40
     Davidson diagonalization with overlap
     ethr =  2.20E-06,  avg # of iterations =  4.0

     negative rho (up, down):  5.572E-08 0.000E+00

     total cpu time spent up to now is      679.5 secs

     total energy              =     -77.19029235 Ry
     Harris-Foulkes estimate   =     -77.19032515 Ry
     estimated scf accuracy    <       0.00019801 Ry

     iteration #  7     ecut=    80.00 Ry     beta= 0.40
     Davidson diagonalization with overlap
     ethr =  3.88E-07,  avg # of iterations =  3.0

     negative rho (up, down):  4.376E-08 0.000E+00

     total cpu time spent up to now is      684.9 secs

     total energy              =     -77.19030633 Ry
     Harris-Foulkes estimate   =     -77.19033730 Ry
     estimated scf accuracy    <       0.00020444 Ry

     iteration #  8     ecut=    80.00 Ry     beta= 0.40
     Davidson diagonalization with overlap
     ethr =  3.88E-07,  avg # of iterations =  1.0

     negative rho (up, down):  2.615E-08 0.000E+00

     total cpu time spent up to now is      689.3 secs

     total energy              =     -77.19029625 Ry
     Harris-Foulkes estimate   =     -77.19031356 Ry
     estimated scf accuracy    <       0.00009048 Ry

     iteration #  9     ecut=    80.00 Ry     beta= 0.40
     Davidson diagonalization with overlap
     ethr =  1.77E-07,  avg # of iterations =  3.0

     negative rho (up, down):  1.214E-08 0.000E+00

     total cpu time spent up to now is      693.8 secs

     total energy              =     -77.19029393 Ry
     Harris-Foulkes estimate   =     -77.19030241 Ry
     estimated scf accuracy    <       0.00003006 Ry

     iteration # 10     ecut=    80.00 Ry     beta= 0.40
     Davidson diagonalization with overlap
     ethr =  5.89E-08,  avg # of iterations =  4.0

     negative rho (up, down):  1.557E-08 0.000E+00

     total cpu time spent up to now is      699.6 secs

     total energy              =     -77.19030189 Ry
     Harris-Foulkes estimate   =     -77.19030290 Ry
     estimated scf accuracy    <       0.00000981 Ry

     iteration # 11     ecut=    80.00 Ry     beta= 0.40
     Davidson diagonalization with overlap
     c_bands:  1 eigenvalues not converged
     ethr =  1.92E-08,  avg # of iterations = 20.0

     negative rho (up, down):  1.790E-08 0.000E+00

     total cpu time spent up to now is      706.0 secs

     total energy              =     -77.19090311 Ry
     Harris-Foulkes estimate   =     -77.19089755 Ry
     estimated scf accuracy    <       0.00038983 Ry

     iteration # 12     ecut=    80.00 Ry     beta= 0.40
     Davidson diagonalization with overlap
     ethr =  1.92E-08,  avg # of iterations =  7.0

     total cpu time spent up to now is      710.8 secs

     total energy              =     -77.19091055 Ry
     Harris-Foulkes estimate   =     -77.19090356 Ry
     estimated scf accuracy    <       0.00041131 Ry

     iteration # 13     ecut=    80.00 Ry     beta= 0.40
     Davidson diagonalization with overlap
     ethr =  1.92E-08,  avg # of iterations =  1.0

     total cpu time spent up to now is      715.2 secs

     total energy              =     -77.19091990 Ry
     Harris-Foulkes estimate   =     -77.19091075 Ry
     estimated scf accuracy    <       0.00044647 Ry

     iteration # 14     ecut=    80.00 Ry     beta= 0.40
     Davidson diagonalization with overlap
     ethr =  1.92E-08,  avg # of iterations =  1.0

     total cpu time spent up to now is      719.6 secs

     total energy              =     -77.19093833 Ry
     Harris-Foulkes estimate   =     -77.19092019 Ry
     estimated scf accuracy    <       0.00049020 Ry

     iteration # 15     ecut=    80.00 Ry     beta= 0.40
     Davidson diagonalization with overlap
     ethr =  1.92E-08,  avg # of iterations =  3.0

     total cpu time spent up to now is      724.2 secs

     total energy              =     -77.19095139 Ry
     Harris-Foulkes estimate   =     -77.19093906 Ry
     estimated scf accuracy    <       0.00058520 Ry

     iteration # 16     ecut=    80.00 Ry     beta= 0.40
     Davidson diagonalization with overlap
     ethr =  1.92E-08,  avg # of iterations =  4.0

     total cpu time spent up to now is      729.0 secs

     total energy              =     -77.19094234 Ry
     Harris-Foulkes estimate   =     -77.19095228 Ry
     estimated scf accuracy    <       0.00065048 Ry

     iteration # 17     ecut=    80.00 Ry     beta= 0.40
     Davidson diagonalization with overlap
     ethr =  1.92E-08,  avg # of iterations =  1.0

     total cpu time spent up to now is      733.3 secs

     total energy              =     -77.19094276 Ry
     Harris-Foulkes estimate   =     -77.19094275 Ry
     estimated scf accuracy    <       0.00062725 Ry

     iteration # 18     ecut=    80.00 Ry     beta= 0.40
     Davidson diagonalization with overlap
     ethr =  1.92E-08,  avg # of iterations =  1.0

     total cpu time spent up to now is      737.7 secs

     total energy              =     -77.19094707 Ry
     Harris-Foulkes estimate   =     -77.19094302 Ry
     estimated scf accuracy    <       0.00062529 Ry

     iteration # 19     ecut=    80.00 Ry     beta= 0.40
     Davidson diagonalization with overlap
     ethr =  1.92E-08,  avg # of iterations =  1.0

     negative rho (up, down):  9.141E-08 0.000E+00

     total cpu time spent up to now is      742.1 secs

     total energy              =     -77.19073331 Ry
     Harris-Foulkes estimate   =     -77.19094720 Ry
     estimated scf accuracy    <       0.00063894 Ry

     iteration # 20     ecut=    80.00 Ry     beta= 0.40
     Davidson diagonalization with overlap
     ethr =  1.92E-08,  avg # of iterations = 10.0

     negative rho (up, down):  5.440E-08 0.000E+00

     total cpu time spent up to now is      751.6 secs

     total energy              =     -77.19081202 Ry
     Harris-Foulkes estimate   =     -77.19082612 Ry
     estimated scf accuracy    <       0.00009447 Ry

     iteration # 21     ecut=    80.00 Ry     beta= 0.40
     Davidson diagonalization with overlap
     ethr =  1.92E-08,  avg # of iterations =  8.0

     negative rho (up, down):  4.299E-08 0.000E+00

     total cpu time spent up to now is      757.8 secs

     total energy              =     -77.19081764 Ry
     Harris-Foulkes estimate   =     -77.19082058 Ry
     estimated scf accuracy    <       0.00001574 Ry

     iteration # 22     ecut=    80.00 Ry     beta= 0.40
     Davidson diagonalization with overlap
     ethr =  1.92E-08,  avg # of iterations =  3.0

     negative rho (up, down):  2.680E-08 0.000E+00

     total cpu time spent up to now is      763.0 secs

     total energy              =     -77.19081897 Ry
     Harris-Foulkes estimate   =     -77.19082031 Ry
     estimated scf accuracy    <       0.00000916 Ry

     iteration # 23     ecut=    80.00 Ry     beta= 0.40
     Davidson diagonalization with overlap
     ethr =  1.80E-08,  avg # of iterations =  1.0

     total cpu time spent up to now is      767.4 secs

     total energy              =     -77.19081987 Ry
     Harris-Foulkes estimate   =     -77.19081978 Ry
     estimated scf accuracy    <       0.00000103 Ry

     iteration # 24     ecut=    80.00 Ry     beta= 0.40
     Davidson diagonalization with overlap
     ethr =  2.01E-09,  avg # of iterations =  7.0

     total cpu time spent up to now is      774.2 secs

     total energy              =     -77.19081989 Ry
     Harris-Foulkes estimate   =     -77.19082061 Ry
     estimated scf accuracy    <       0.00000522 Ry

     iteration # 25     ecut=    80.00 Ry     beta= 0.40
     Davidson diagonalization with overlap
     ethr =  2.01E-09,  avg # of iterations =  4.0

     total cpu time spent up to now is      779.6 secs

     total energy              =     -77.19082019 Ry
     Harris-Foulkes estimate   =     -77.19082034 Ry
     estimated scf accuracy    <       0.00000111 Ry

     iteration # 26     ecut=    80.00 Ry     beta= 0.40
     Davidson diagonalization with overlap
     ethr =  2.01E-09,  avg # of iterations =  1.0

     total cpu time spent up to now is      783.7 secs

     End of self-consistent calculation

          k = 0.0000 0.0000 0.0000 (252395 PWs)   bands (ev):

    -9.9941  -9.1257  -9.1254  -9.1015  -8.9845  -8.9843  -8.4030  -7.4897
    -7.4328  -7.4328  -6.8941  -5.8301  -5.7777  -5.7776  -5.6607  -5.6605
    -4.8360  -4.8359  -4.1083  -3.9932  -3.3115  -3.2021  -3.2021  -3.1163
    -3.1161  -3.1041  -3.0915  -3.0423  -3.0422  -2.6454  -2.6452

     the Fermi energy is    -3.0630 ev

!    total energy              =     -77.19082003 Ry
     Harris-Foulkes estimate   =     -77.19082029 Ry
     estimated scf accuracy    <       0.00000032 Ry

     The total energy is the sum of the following terms:

     one-electron contribution =    -270.30446060 Ry
     hartree contribution      =     139.77496195 Ry
     xc contribution           =     -33.43104696 Ry
     ewald contribution        =      86.88082792 Ry
     smearing contrib. (-TS)   =      -0.11110235 Ry

     convergence has been achieved in  26 iterations

     Forces acting on atoms (cartesian axes, Ry/au):

     atom    1 type  1   force =    -0.01987210   -0.00134630    0.00000000
     atom    2 type  1   force =     0.00000628   -0.01297437    0.00000000
     atom    3 type  1   force =     0.01984826   -0.00128440    0.00000000
     atom    4 type  1   force =     0.00912304    0.00524348    0.00000000
     atom    5 type  1   force =    -0.01112574   -0.01652268    0.00000000
     atom    6 type  1   force =    -0.00479598   -0.00277738    0.00000000
     atom    7 type  1   force =     0.00003083    0.00001733    0.00000000
     atom    8 type  1   force =     0.00482519   -0.00278846    0.00000000
     atom    9 type  1   force =    -0.00003565    0.00000381    0.00000000
     atom   10 type  1   force =    -0.01119860    0.00646987    0.00000000
     atom   11 type  1   force =     0.00878503    0.01786225    0.00000000
     atom   12 type  1   force =     0.00000841    0.00555874    0.00000000
     atom   13 type  1   force =    -0.00911115    0.00525813    0.00000000
     atom   14 type  1   force =     0.01104089   -0.01651928    0.00000000
     atom   15 type  1   force =     0.00002781   -0.01052080    0.00000000
     atom   16 type  1   force =    -0.00878207    0.01784377    0.00000000
     atom   17 type  1   force =     0.01122555    0.00647629    0.00000000

     Total force =     0.057480     Total SCF correction =     0.000464


     Computing stress (Cartesian axis) and pressure

          total   stress  (Ry/bohr**3)                   (kbar)     P=   -1.91
  -0.00001951  -0.00000001   0.00000000         -2.87     -0.00      0.00
  -0.00000001  -0.00001953   0.00000000         -0.00     -2.87      0.00
   0.00000000   0.00000000   0.00000001          0.00      0.00      0.00


     number of scf cycles    =   7
     number of bfgs steps    =   6

     enthalpy old            =     -77.1828739440 Ry
     enthalpy new            =     -77.1908200305 Ry

     CASE: enthalpy_new < enthalpy_old

     new trust radius        =       0.2528635037 bohr
     new conv_thr            =       0.0000010000 Ry

     new unit-cell volume =  20527.84718 a.u.^3 (  3041.91307 Ang^3 )
     density =      0.27824 g/cm^3

CELL_PARAMETERS (alat= 25.26072511)
   0.991391377   0.000005660   0.000000000
  -0.495690787   0.858571261   0.000000000
   0.000000000   0.000000000   1.496177267

ATOMIC_POSITIONS (angstrom)
Al       0.001056180   2.497004410   0.000000000
Al       2.208618970   1.376579038   0.000000000
Al       4.416418054   2.496723277   0.000000000
Al       6.952282681   1.463783250   0.000000000
Al      -2.254463328   6.403705781   0.000000000
Al      -0.005974402   5.097556284   0.000000000
Al       2.208564492   6.375892672   0.000000000
Al       4.423486104   5.097787892   0.000000000
Al      -4.417192398  10.201726834   0.000000000
Al      -2.121044909   8.875711838   0.000000000
Al      -0.047032429  10.227675484   0.000000000
Al       2.208950282   8.933172791   0.000000000
Al      10.717753081   1.463581080   0.000000000
Al       6.672399372   6.403829163   0.000000000
Al       8.834785109   4.724836658   0.000000000
Al       4.464663927  10.227795555   0.000000000
Al       6.538544489   8.875781114   0.000000000



     Writing output data file 13al_planar_2x2_vcr.save/
     NEW-OLD atomic charge density approx. for the potential

     negative rho (up, down):  7.403E-06 0.000E+00
     extrapolated charge   50.64738, renormalised to   51.00000

     total cpu time spent up to now is      829.8 secs

     Self-consistent Calculation

     iteration #  1     ecut=    80.00 Ry     beta= 0.40
     Davidson diagonalization with overlap
     ethr =  1.00E-06,  avg # of iterations = 10.0

     negative rho (up, down):  4.203E-06 0.000E+00

     total cpu time spent up to now is      841.1 secs

     total energy              =     -77.18629029 Ry
     Harris-Foulkes estimate   =     -78.91332672 Ry
     estimated scf accuracy    <       0.01970101 Ry

     iteration #  2     ecut=    80.00 Ry     beta= 0.40
     Davidson diagonalization with overlap
     ethr =  3.86E-05,  avg # of iterations =  9.0

     negative rho (up, down):  3.594E-06 0.000E+00

     total cpu time spent up to now is      847.9 secs

     total energy              =     -77.18836901 Ry
     Harris-Foulkes estimate   =     -77.21663338 Ry
     estimated scf accuracy    <       0.17339216 Ry

     iteration #  3     ecut=    80.00 Ry     beta= 0.40
     Davidson diagonalization with overlap
     ethr =  3.86E-05,  avg # of iterations =  4.0

     negative rho (up, down):  2.997E-06 0.000E+00

     total cpu time spent up to now is      853.6 secs

     total energy              =     -77.19958663 Ry
     Harris-Foulkes estimate   =     -77.20021476 Ry
     estimated scf accuracy    <       0.00680210 Ry

     iteration #  4     ecut=    80.00 Ry     beta= 0.40
     Davidson diagonalization with overlap
     ethr =  1.33E-05,  avg # of iterations =  2.0

     negative rho (up, down):  1.818E-06 0.000E+00

     total cpu time spent up to now is      858.1 secs

     total energy              =     -77.19901419 Ry
     Harris-Foulkes estimate   =     -77.19977823 Ry
     estimated scf accuracy    <       0.00457407 Ry

     iteration #  5     ecut=    80.00 Ry     beta= 0.40
     Davidson diagonalization with overlap
     ethr =  8.97E-06,  avg # of iterations =  1.0

     negative rho (up, down):  2.257E-07 0.000E+00

     total cpu time spent up to now is      862.4 secs

     total energy              =     -77.19853610 Ry
     Harris-Foulkes estimate   =     -77.19936318 Ry
     estimated scf accuracy    <       0.00309158 Ry

     iteration #  6     ecut=    80.00 Ry     beta= 0.40
     Davidson diagonalization with overlap
     ethr =  6.06E-06,  avg # of iterations =  4.0

     negative rho (up, down):  1.567E-07 0.000E+00

     total cpu time spent up to now is      867.3 secs

     total energy              =     -77.19908097 Ry
     Harris-Foulkes estimate   =     -77.19915387 Ry
     estimated scf accuracy    <       0.00049642 Ry

     iteration #  7     ecut=    80.00 Ry     beta= 0.40
     Davidson diagonalization with overlap
     ethr =  9.73E-07,  avg # of iterations =  4.0

     negative rho (up, down):  1.165E-07 0.000E+00

     total cpu time spent up to now is      872.9 secs

     total energy              =     -77.19910422 Ry
     Harris-Foulkes estimate   =     -77.19919463 Ry
     estimated scf accuracy    <       0.00052536 Ry

     iteration #  8     ecut=    80.00 Ry     beta= 0.40
     Davidson diagonalization with overlap
     ethr =  9.73E-07,  avg # of iterations =  1.0

     negative rho (up, down):  4.828E-08 0.000E+00

     total cpu time spent up to now is      877.2 secs

     total energy              =     -77.19908408 Ry
     Harris-Foulkes estimate   =     -77.19912372 Ry
     estimated scf accuracy    <       0.00017810 Ry

     iteration #  9     ecut=    80.00 Ry     beta= 0.40
     Davidson diagonalization with overlap
     ethr =  3.49E-07,  avg # of iterations =  3.0

     negative rho (up, down):  3.921E-08 0.000E+00

     total cpu time spent up to now is      882.2 secs

     total energy              =     -77.19910440 Ry
     Harris-Foulkes estimate   =     -77.19910686 Ry
     estimated scf accuracy    <       0.00001406 Ry

     iteration # 10     ecut=    80.00 Ry     beta= 0.40
     Davidson diagonalization with overlap
     ethr =  2.76E-08,  avg # of iterations =  5.0

     negative rho (up, down):  3.741E-08 0.000E+00

     total cpu time spent up to now is      888.5 secs

     total energy              =     -77.19910731 Ry
     Harris-Foulkes estimate   =     -77.19910945 Ry
     estimated scf accuracy    <       0.00001011 Ry

     iteration # 11     ecut=    80.00 Ry     beta= 0.40
     Davidson diagonalization with overlap
     ethr =  1.98E-08,  avg # of iterations =  2.0

     total cpu time spent up to now is      892.9 secs

     total energy              =     -77.19910758 Ry
     Harris-Foulkes estimate   =     -77.19910819 Ry
     estimated scf accuracy    <       0.00000355 Ry

     iteration # 12     ecut=    80.00 Ry     beta= 0.40
     Davidson diagonalization with overlap
     ethr =  6.95E-09,  avg # of iterations =  6.0

     total cpu time spent up to now is      898.2 secs

     total energy              =     -77.19910803 Ry
     Harris-Foulkes estimate   =     -77.19910846 Ry
     estimated scf accuracy    <       0.00000261 Ry

     iteration # 13     ecut=    80.00 Ry     beta= 0.40
     Davidson diagonalization with overlap
     ethr =  5.12E-09,  avg # of iterations =  5.0

     total cpu time spent up to now is      902.8 secs

     End of self-consistent calculation

          k = 0.0000 0.0000 0.0000 (252395 PWs)   bands (ev):

   -10.0309  -9.1750  -9.1708  -9.1068  -8.9875  -8.9859  -8.4886  -7.5048
    -7.4382  -7.4354  -7.0314  -5.8335  -5.8017  -5.8011  -5.6940  -5.6880
    -4.9032  -4.9014  -4.4678  -4.0161  -3.3586  -3.1877  -3.1854  -3.1423
    -3.1399  -3.0845  -3.0375  -3.0371  -3.0234  -2.6946  -2.6414

     the Fermi energy is    -3.0595 ev

!    total energy              =     -77.19910811 Ry
     Harris-Foulkes estimate   =     -77.19910827 Ry
     estimated scf accuracy    <       0.00000021 Ry

     The total energy is the sum of the following terms:

     one-electron contribution =    -271.24135923 Ry
     hartree contribution      =     140.13931268 Ry
     xc contribution           =     -33.38044075 Ry
     ewald contribution        =      87.39837579 Ry
     smearing contrib. (-TS)   =      -0.11499660 Ry

     convergence has been achieved in  13 iterations

     Forces acting on atoms (cartesian axes, Ry/au):

     atom    1 type  1   force =    -0.02927815    0.00020206    0.00000000
     atom    2 type  1   force =     0.00034686   -0.01982122    0.00000000
     atom    3 type  1   force =     0.02888684   -0.00036878    0.00000000
     atom    4 type  1   force =     0.00295607    0.00162698    0.00000000
     atom    5 type  1   force =    -0.01464426   -0.02532099    0.00000000
     atom    6 type  1   force =    -0.00493820   -0.00302143    0.00000000
     atom    7 type  1   force =    -0.00179121   -0.00080047    0.00000000
     atom    8 type  1   force =     0.00700239   -0.00295689    0.00000000
     atom    9 type  1   force =    -0.00092040   -0.00037184    0.00000000
     atom   10 type  1   force =    -0.01679206    0.01004561    0.00000000
     atom   11 type  1   force =     0.01399532    0.02530553    0.00000000
     atom   12 type  1   force =     0.00109839    0.00733529    0.00000000
     atom   13 type  1   force =    -0.00309407    0.00218613    0.00000000
     atom   14 type  1   force =     0.01374557   -0.02591497    0.00000000
     atom   15 type  1   force =     0.00042592   -0.00373373    0.00000000
     atom   16 type  1   force =    -0.01564037    0.02487153    0.00000000
     atom   17 type  1   force =     0.01864138    0.01073720    0.00000000

     Total force =     0.080852     Total SCF correction =     0.000325


     Computing stress (Cartesian axis) and pressure

          total   stress  (Ry/bohr**3)                   (kbar)     P=   -2.53
  -0.00002529   0.00000101   0.00000000         -3.72      0.15      0.00
   0.00000101  -0.00002620   0.00000000          0.15     -3.85      0.00
   0.00000000   0.00000000  -0.00000001          0.00      0.00     -0.00


     number of scf cycles    =   8
     number of bfgs steps    =   7

     enthalpy old            =     -77.1908200305 Ry
     enthalpy new            =     -77.1991081120 Ry

     CASE: enthalpy_new < enthalpy_old

     new trust radius        =       0.3779902020 bohr
     new conv_thr            =       0.0000010000 Ry

     new unit-cell volume =  20291.29365 a.u.^3 (  3006.85946 Ang^3 )
     density =      0.28148 g/cm^3

CELL_PARAMETERS (alat= 25.26072511)
   0.985684707   0.000061142   0.000000000
  -0.492789404   0.853563184   0.000000000
   0.000000000   0.000000000   1.496177267

ATOMIC_POSITIONS (angstrom)
Al      -0.023871799   2.456132055   0.000000000
Al       2.196275403   1.406883378   0.000000000
Al       4.415757368   2.455273940   0.000000000
Al       7.084303295   1.555046519   0.000000000
Al      -2.276708334   6.358070265   0.000000000
Al      -0.012534254   5.063932402   0.000000000
Al       2.194140583   6.338041656   0.000000000
Al       4.407373990   5.064604525   0.000000000
Al      -4.392077858  10.141869844   0.000000000
Al      -2.074993086   8.805080988   0.000000000
Al      -0.057600443  10.203305234   0.000000000
Al       2.198006957   8.890926408   0.000000000
[...]

     total cpu time spent up to now is     1234.8 secs

     total energy              =     -77.21231342 Ry
     Harris-Foulkes estimate   =     -77.21237315 Ry
     estimated scf accuracy    <       0.00018530 Ry

     iteration # 55     ecut=    80.00 Ry     beta= 0.40
     Davidson diagonalization with overlap
     c_bands:  1 eigenvalues not converged
     ethr =  2.29E-08,  avg # of iterations = 20.0

     total cpu time spent up to now is     1244.2 secs

     total energy              =     -77.21240301 Ry
     Harris-Foulkes estimate   =     -77.21250222 Ry
     estimated scf accuracy    <       0.00068640 Ry

     iteration # 56     ecut=    80.00 Ry     beta= 0.40
     Davidson diagonalization with overlap
     ethr =  2.29E-08,  avg # of iterations = 14.0

     total cpu time spent up to now is     1252.1 secs

     total energy              =     -77.21240175 Ry
     Harris-Foulkes estimate   =     -77.21242305 Ry
     estimated scf accuracy    <       0.00027499 Ry

     iteration # 57     ecut=    80.00 Ry     beta= 0.40
     Davidson diagonalization with overlap
     ethr =  2.29E-08,  avg # of iterations = 14.0

     total cpu time spent up to now is     1258.4 secs

     total energy              =     -77.21239651 Ry
     Harris-Foulkes estimate   =     -77.21240441 Ry
     estimated scf accuracy    <       0.00014980 Ry

     iteration # 58     ecut=    80.00 Ry     beta= 0.40
     Davidson diagonalization with overlap
     ethr =  2.29E-08,  avg # of iterations =  1.0

     total cpu time spent up to now is     1262.7 secs

     total energy              =     -77.21239385 Ry
     Harris-Foulkes estimate   =     -77.21239695 Ry
     estimated scf accuracy    <       0.00012350 Ry

     iteration # 59     ecut=    80.00 Ry     beta= 0.40
     Davidson diagonalization with overlap
     ethr =  2.29E-08,  avg # of iterations =  1.0

     total cpu time spent up to now is     1267.0 secs

     total energy              =     -77.21238877 Ry
     Harris-Foulkes estimate   =     -77.21239404 Ry
     estimated scf accuracy    <       0.00010774 Ry

     iteration # 60     ecut=    80.00 Ry     beta= 0.40
     Davidson diagonalization with overlap
     ethr =  2.29E-08,  avg # of iterations =  1.0

     total cpu time spent up to now is     1271.3 secs

     total energy              =     -77.21238780 Ry
     Harris-Foulkes estimate   =     -77.21238913 Ry
     estimated scf accuracy    <       0.00008275 Ry

     iteration # 61     ecut=    80.00 Ry     beta= 0.40
     Davidson diagonalization with overlap
     ethr =  2.29E-08,  avg # of iterations =  1.0

     total cpu time spent up to now is     1275.6 secs

     total energy              =     -77.21238746 Ry
     Harris-Foulkes estimate   =     -77.21238794 Ry
     estimated scf accuracy    <       0.00007516 Ry

     iteration # 62     ecut=    80.00 Ry     beta= 0.40
     Davidson diagonalization with overlap
     ethr =  2.29E-08,  avg # of iterations =  1.0

     total cpu time spent up to now is     1280.0 secs

     total energy              =     -77.21238717 Ry
     Harris-Foulkes estimate   =     -77.21238754 Ry
     estimated scf accuracy    <       0.00007114 Ry

     iteration # 63     ecut=    80.00 Ry     beta= 0.40
     Davidson diagonalization with overlap
     ethr =  2.29E-08,  avg # of iterations =  1.0

     total cpu time spent up to now is     1284.4 secs

     total energy              =     -77.21236755 Ry
     Harris-Foulkes estimate   =     -77.21238722 Ry
     estimated scf accuracy    <       0.00006873 Ry

     iteration # 64     ecut=    80.00 Ry     beta= 0.40
     Davidson diagonalization with overlap
     ethr =  2.29E-08,  avg # of iterations = 16.0

     total cpu time spent up to now is     1292.2 secs

     total energy              =     -77.21239523 Ry
     Harris-Foulkes estimate   =     -77.21243592 Ry
     estimated scf accuracy    <       0.00051000 Ry

     iteration # 65     ecut=    80.00 Ry     beta= 0.40
     Davidson diagonalization with overlap
     c_bands:  1 eigenvalues not converged
     ethr =  2.29E-08,  avg # of iterations = 20.0

     total cpu time spent up to now is     1298.6 secs

     total energy              =     -77.21239290 Ry
     Harris-Foulkes estimate   =     -77.21239900 Ry
     estimated scf accuracy    <       0.00026595 Ry

     iteration # 66     ecut=    80.00 Ry     beta= 0.40
     Davidson diagonalization with overlap
     ethr =  2.29E-08,  avg # of iterations =  1.0

     total cpu time spent up to now is     1302.9 secs

     total energy              =     -77.21238976 Ry
     Harris-Foulkes estimate   =     -77.21239310 Ry
     estimated scf accuracy    <       0.00024004 Ry

     iteration # 67     ecut=    80.00 Ry     beta= 0.40
     Davidson diagonalization with overlap
     ethr =  2.29E-08,  avg # of iterations =  1.0

     total cpu time spent up to now is     1307.3 secs

     total energy              =     -77.21238545 Ry
     Harris-Foulkes estimate   =     -77.21238986 Ry
     estimated scf accuracy    <       0.00022382 Ry

     iteration # 68     ecut=    80.00 Ry     beta= 0.40
     Davidson diagonalization with overlap
     ethr =  2.29E-08,  avg # of iterations =  1.0

     total cpu time spent up to now is     1311.7 secs

     total energy              =     -77.21237439 Ry
     Harris-Foulkes estimate   =     -77.21238557 Ry
     estimated scf accuracy    <       0.00020281 Ry

     iteration # 69     ecut=    80.00 Ry     beta= 0.40
     Davidson diagonalization with overlap
     ethr =  2.29E-08,  avg # of iterations =  1.0

     total cpu time spent up to now is     1316.1 secs

     total energy              =     -77.21237162 Ry
     Harris-Foulkes estimate   =     -77.21237490 Ry
     estimated scf accuracy    <       0.00015297 Ry

     iteration # 70     ecut=    80.00 Ry     beta= 0.40
     Davidson diagonalization with overlap
     ethr =  2.29E-08,  avg # of iterations =  1.0

     total cpu time spent up to now is     1320.4 secs

     total energy              =     -77.21237263 Ry
     Harris-Foulkes estimate   =     -77.21237181 Ry
     estimated scf accuracy    <       0.00013779 Ry

     iteration # 71     ecut=    80.00 Ry     beta= 0.40
     Davidson diagonalization with overlap
     ethr =  2.29E-08,  avg # of iterations =  1.0

     total cpu time spent up to now is     1324.7 secs

     total energy              =     -77.21236909 Ry
     Harris-Foulkes estimate   =     -77.21237271 Ry
     estimated scf accuracy    <       0.00013835 Ry

     iteration # 72     ecut=    80.00 Ry     beta= 0.40
     Davidson diagonalization with overlap
     ethr =  2.29E-08,  avg # of iterations =  1.0

     total cpu time spent up to now is     1329.0 secs

     total energy              =     -77.21233038 Ry
     Harris-Foulkes estimate   =     -77.21236925 Ry
     estimated scf accuracy    <       0.00012068 Ry

     iteration # 73     ecut=    80.00 Ry     beta= 0.40
     Davidson diagonalization with overlap
     c_bands:  1 eigenvalues not converged
     ethr =  2.29E-08,  avg # of iterations = 20.0

     total cpu time spent up to now is     1337.5 secs

     total energy              =     -77.21240869 Ry
     Harris-Foulkes estimate   =     -77.21240357 Ry
     estimated scf accuracy    <       0.00031224 Ry

     iteration # 74     ecut=    80.00 Ry     beta= 0.40
     Davidson diagonalization with overlap
     c_bands:  1 eigenvalues not converged
     ethr =  2.29E-08,  avg # of iterations = 20.0

     total cpu time spent up to now is     1343.5 secs

     total energy              =     -77.21244809 Ry
     Harris-Foulkes estimate   =     -77.21248716 Ry
     estimated scf accuracy    <       0.00065289 Ry

     iteration # 75     ecut=    80.00 Ry     beta= 0.40
     Davidson diagonalization with overlap
     ethr =  2.29E-08,  avg # of iterations = 10.0

     total cpu time spent up to now is     1348.7 secs

     total energy              =     -77.21243272 Ry
     Harris-Foulkes estimate   =     -77.21245185 Ry
     estimated scf accuracy    <       0.00046868 Ry

     iteration # 76     ecut=    80.00 Ry     beta= 0.40
     Davidson diagonalization with overlap
     ethr =  2.29E-08,  avg # of iterations =  1.0

     total cpu time spent up to now is     1352.9 secs

     total energy              =     -77.21238524 Ry
     Harris-Foulkes estimate   =     -77.21243346 Ry
     estimated scf accuracy    <       0.00037784 Ry

     iteration # 77     ecut=    80.00 Ry     beta= 0.40
     Davidson diagonalization with overlap
     ethr =  2.29E-08,  avg # of iterations = 16.0

     total cpu time spent up to now is     1360.9 secs

     total energy              =     -77.21239603 Ry
     Harris-Foulkes estimate   =     -77.21239362 Ry
     estimated scf accuracy    <       0.00009965 Ry

     iteration # 78     ecut=    80.00 Ry     beta= 0.40
     Davidson diagonalization with overlap
     ethr =  2.29E-08,  avg # of iterations =  1.0

     total cpu time spent up to now is     1365.3 secs

     total energy              =     -77.21239881 Ry
     Harris-Foulkes estimate   =     -77.21239615 Ry
     estimated scf accuracy    <       0.00011206 Ry

     iteration # 79     ecut=    80.00 Ry     beta= 0.40
     Davidson diagonalization with overlap
     ethr =  2.29E-08,  avg # of iterations =  1.0

     total cpu time spent up to now is     1369.7 secs

     total energy              =     -77.21239509 Ry
     Harris-Foulkes estimate   =     -77.21239889 Ry
     estimated scf accuracy    <       0.00012607 Ry

     iteration # 80     ecut=    80.00 Ry     beta= 0.40
     Davidson diagonalization with overlap
     ethr =  2.29E-08,  avg # of iterations =  1.0

     total cpu time spent up to now is     1374.0 secs

     total energy              =     -77.21239227 Ry
     Harris-Foulkes estimate   =     -77.21239514 Ry
     estimated scf accuracy    <       0.00011193 Ry

     iteration # 81     ecut=    80.00 Ry     beta= 0.40
     Davidson diagonalization with overlap
     ethr =  2.29E-08,  avg # of iterations =  1.0

     negative rho (up, down):  1.130E-08 0.000E+00

     total cpu time spent up to now is     1378.4 secs

     total energy              =     -77.21235866 Ry
     Harris-Foulkes estimate   =     -77.21239233 Ry
     estimated scf accuracy    <       0.00010019 Ry

     iteration # 82     ecut=    80.00 Ry     beta= 0.40
     Davidson diagonalization with overlap
     ethr =  2.29E-08,  avg # of iterations = 17.0

     total cpu time spent up to now is     1386.2 secs

     total energy              =     -77.21240036 Ry
     Harris-Foulkes estimate   =     -77.21246050 Ry
     estimated scf accuracy    <       0.00060459 Ry

     iteration # 83     ecut=    80.00 Ry     beta= 0.40
     Davidson diagonalization with overlap
     ethr =  2.29E-08,  avg # of iterations = 17.0

     total cpu time spent up to now is     1393.6 secs

     total energy              =     -77.21239380 Ry
     Harris-Foulkes estimate   =     -77.21240509 Ry
     estimated scf accuracy    <       0.00031220 Ry

     iteration # 84     ecut=    80.00 Ry     beta= 0.40
     Davidson diagonalization with overlap
     ethr =  2.29E-08,  avg # of iterations =  1.0

     total cpu time spent up to now is     1397.9 secs

     total energy              =     -77.21238706 Ry
     Harris-Foulkes estimate   =     -77.21239410 Ry
     estimated scf accuracy    <       0.00026515 Ry

     iteration # 85     ecut=    80.00 Ry     beta= 0.40
     Davidson diagonalization with overlap
     ethr =  2.29E-08,  avg # of iterations =  1.0

     total cpu time spent up to now is     1402.2 secs

     total energy              =     -77.21236968 Ry
     Harris-Foulkes estimate   =     -77.21238726 Ry
     estimated scf accuracy    <       0.00023525 Ry

     iteration # 86     ecut=    80.00 Ry     beta= 0.40
     Davidson diagonalization with overlap
     c_bands:  1 eigenvalues not converged
     ethr =  2.29E-08,  avg # of iterations = 20.0

     total cpu time spent up to now is     1408.5 secs

     total energy              =     -77.21238906 Ry
     Harris-Foulkes estimate   =     -77.21239289 Ry
     estimated scf accuracy    <       0.00008835 Ry

     iteration # 87     ecut=    80.00 Ry     beta= 0.40
     Davidson diagonalization with overlap
     ethr =  2.29E-08,  avg # of iterations =  2.0

     total cpu time spent up to now is     1412.9 secs

     total energy              =     -77.21238575 Ry
     Harris-Foulkes estimate   =     -77.21238927 Ry
     estimated scf accuracy    <       0.00007432 Ry

     iteration # 88     ecut=    80.00 Ry     beta= 0.40
     Davidson diagonalization with overlap
     ethr =  2.29E-08,  avg # of iterations =  1.0

     total cpu time spent up to now is     1417.3 secs

     total energy              =     -77.21238321 Ry
     Harris-Foulkes estimate   =     -77.21238588 Ry
     estimated scf accuracy    <       0.00006010 Ry

     iteration # 89     ecut=    80.00 Ry     beta= 0.40
     Davidson diagonalization with overlap
     ethr =  2.29E-08,  avg # of iterations =  1.0

     total cpu time spent up to now is     1421.6 secs

     total energy              =     -77.21238371 Ry
     Harris-Foulkes estimate   =     -77.21238330 Ry
     estimated scf accuracy    <       0.00004914 Ry

     iteration # 90     ecut=    80.00 Ry     beta= 0.40
     Davidson diagonalization with overlap
     ethr =  2.29E-08,  avg # of iterations =  1.0

     total cpu time spent up to now is     1426.0 secs

     total energy              =     -77.21238257 Ry
     Harris-Foulkes estimate   =     -77.21238373 Ry
     estimated scf accuracy    <       0.00005021 Ry

     iteration # 91     ecut=    80.00 Ry     beta= 0.40
     Davidson diagonalization with overlap
     ethr =  2.29E-08,  avg # of iterations =  1.0

     total cpu time spent up to now is     1430.2 secs

     total energy              =     -77.21238268 Ry
     Harris-Foulkes estimate   =     -77.21238261 Ry
     estimated scf accuracy    <       0.00004449 Ry

     iteration # 92     ecut=    80.00 Ry     beta= 0.40
     Davidson diagonalization with overlap
     ethr =  2.29E-08,  avg # of iterations =  1.0

     total cpu time spent up to now is     1434.4 secs

     total energy              =     -77.21238242 Ry
     Harris-Foulkes estimate   =     -77.21238269 Ry
     estimated scf accuracy    <       0.00004462 Ry

     iteration # 93     ecut=    80.00 Ry     beta= 0.40
     Davidson diagonalization with overlap
     ethr =  2.29E-08,  avg # of iterations =  1.0

     total cpu time spent up to now is     1438.8 secs

     total energy              =     -77.21238263 Ry
     Harris-Foulkes estimate   =     -77.21238243 Ry
     estimated scf accuracy    <       0.00004316 Ry

     iteration # 94     ecut=    80.00 Ry     beta= 0.40
     Davidson diagonalization with overlap
     ethr =  2.29E-08,  avg # of iterations =  1.0

     total cpu time spent up to now is     1443.1 secs

     total energy              =     -77.21236940 Ry
     Harris-Foulkes estimate   =     -77.21238263 Ry
     estimated scf accuracy    <       0.00004384 Ry

     iteration # 95     ecut=    80.00 Ry     beta= 0.40
     Davidson diagonalization with overlap
     ethr =  2.29E-08,  avg # of iterations = 18.0

     total cpu time spent up to now is     1450.7 secs

     total energy              =     -77.21241044 Ry
     Harris-Foulkes estimate   =     -77.21243821 Ry
     estimated scf accuracy    <       0.00052517 Ry

     iteration # 96     ecut=    80.00 Ry     beta= 0.40
     Davidson diagonalization with overlap
     ethr =  2.29E-08,  avg # of iterations =  2.0

     total cpu time spent up to now is     1455.3 secs

     total energy              =     -77.21240743 Ry
     Harris-Foulkes estimate   =     -77.21241148 Ry
     estimated scf accuracy    <       0.00040455 Ry

     iteration # 97     ecut=    80.00 Ry     beta= 0.40
     Davidson diagonalization with overlap
     ethr =  2.29E-08,  avg # of iterations =  1.0

     total cpu time spent up to now is     1459.6 secs

     total energy              =     -77.21240940 Ry
     Harris-Foulkes estimate   =     -77.21240753 Ry
     estimated scf accuracy    <       0.00038409 Ry

     iteration # 98     ecut=    80.00 Ry     beta= 0.40
     Davidson diagonalization with overlap
     ethr =  2.29E-08,  avg # of iterations =  1.0

     total cpu time spent up to now is     1463.8 secs

     total energy              =     -77.21241154 Ry
     Harris-Foulkes estimate   =     -77.21240945 Ry
     estimated scf accuracy    <       0.00038511 Ry

     iteration # 99     ecut=    80.00 Ry     beta= 0.40
     Davidson diagonalization with overlap
     ethr =  2.29E-08,  avg # of iterations =  1.0

     total cpu time spent up to now is     1468.2 secs

     total energy              =     -77.21238873 Ry
     Harris-Foulkes estimate   =     -77.21241156 Ry
     estimated scf accuracy    <       0.00039388 Ry

     iteration #100     ecut=    80.00 Ry     beta= 0.40
     Davidson diagonalization with overlap
     ethr =  2.29E-08,  avg # of iterations = 19.0

     total cpu time spent up to now is     1474.5 secs

     total energy              =     -77.21239156 Ry
     Harris-Foulkes estimate   =     -77.21239363 Ry
     estimated scf accuracy    <       0.00015828 Ry

     End of self-consistent calculation

     convergence NOT achieved after 100 iterations: stopping

     Writing output data file 13al_planar_2x2_vcr.save/
 
     init_run     :     11.74s CPU     12.40s WALL (       1 calls)
     electrons    :   1054.41s CPU   1090.68s WALL (       9 calls)
     update_pot   :    164.17s CPU    164.82s WALL (       8 calls)
     forces       :     77.02s CPU     78.25s WALL (       8 calls)
     stress       :    123.11s CPU    125.27s WALL (       8 calls)

     Called by init_run:
     wfcinit      :      2.41s CPU      2.92s WALL (       1 calls)
     potinit      :      3.47s CPU      3.55s WALL (       1 calls)
     hinit0       :      5.12s CPU      5.15s WALL (       1 calls)

     Called by electrons:
     c_bands      :    822.94s CPU    841.60s WALL (     200 calls)
     sum_band     :    115.09s CPU    118.06s WALL (     200 calls)
     v_of_rho     :     93.48s CPU    102.60s WALL (     209 calls)
     mix_rho      :     23.50s CPU     27.82s WALL (     200 calls)

     Called by c_bands:
     init_us_2    :     16.27s CPU     16.41s WALL (     401 calls)
     cegterg      :    665.58s CPU    683.62s WALL (     200 calls)

     Called by sum_band:

     Called by *egterg:
     h_psi        :    587.26s CPU    603.55s WALL (    1147 calls)
     g_psi        :      2.36s CPU      2.37s WALL (     946 calls)
     cdiaghg      :      2.67s CPU      2.70s WALL (    1138 calls)

     Called by h_psi:
     h_psi:pot    :    585.80s CPU    600.47s WALL (    1147 calls)
     h_psi:calbec :     85.40s CPU     85.69s WALL (    1147 calls)
     vloc_psi     :    411.37s CPU    425.43s WALL (    1147 calls)
     add_vuspsi   :     89.02s CPU     89.35s WALL (    1147 calls)

     General routines
     calbec       :     91.46s CPU     91.89s WALL (    1187 calls)
     fft          :    132.84s CPU    139.48s WALL (    2300 calls)
     ffts         :      4.98s CPU      5.08s WALL (     200 calls)
     fftw         :    434.33s CPU    450.28s WALL (   39050 calls)
     davcio       :      0.01s CPU      0.09s WALL (      19 calls)
 
     Parallel routines
     fft_scatt_xy :     80.98s CPU     83.21s WALL (   41550 calls)
     fft_scatt_yz :    239.56s CPU    247.51s WALL (   41550 calls)
 
     PWSCF        : 23m51.52s CPU    24m34.90s WALL

 
   This run was terminated on:  17:47: 4  25Nov2020            

=------------------------------------------------------------------------------=
   JOB DONE.
=------------------------------------------------------------------------------=
