
     Program PWSCF v.6.3MaX starts on 25Nov2020 at 11: 7:27 

     This program is part of the open-source Quantum ESPRESSO suite
     for quantum simulation of materials; please cite
         "P. Giannozzi et al., J. Phys.:Condens. Matter 21 395502 (2009);
         "P. Giannozzi et al., J. Phys.:Condens. Matter 29 465901 (2017);
          URL http://www.quantum-espresso.org", 
     in publications or presentations arising from this work. More details at
     http://www.quantum-espresso.org/quote

     Parallel version (MPI), running on     8 processors

     MPI processes distributed on     5 nodes
     R & G space division:  proc/nbgrp/npool/nimage =       8
     Waiting for input...
     Reading input from standard input

     Current dimensions of program PWSCF are:
     Max number of different atomic species (ntypx) = 10
     Max number of k-points (npk) =  40000
     Max angular momentum in pseudopotentials (lmaxx) =  3

     Subspace diagonalization in iterative solution of the eigenvalue problem:
     a serial algorithm will be used

 
     Parallelization info
     --------------------
     sticks:   dense  smooth     PW     G-vecs:    dense   smooth      PW
     Min         194     194     47                28006    28006    3479
     Max         195     195     48                28027    28027    3500
     Sum        1555    1555    379               224129   224129   27893
 


     bravais-lattice index     =            4
     lattice parameter (alat)  =       8.4202  a.u.
     unit-cell volume          =    2320.6445 (a.u.)^3
     number of atoms/cell      =            1
     number of atomic types    =            1
     number of electrons       =         3.00
     number of Kohn-Sham states=            6
     kinetic-energy cutoff     =      80.0000  Ry
     charge density cutoff     =     320.0000  Ry
     convergence threshold     =      1.0E-06
     mixing beta               =       0.4000
     number of iterations used =            8  plain     mixing
     Exchange-correlation      = PBE ( 1  4  3  4 0 0)
     nstep                     =          300


     celldm(1)=   8.420242  celldm(2)=   0.000000  celldm(3)=   4.488532
     celldm(4)=   0.000000  celldm(5)=   0.000000  celldm(6)=   0.000000

     crystal axes: (cart. coord. in units of alat)
               a(1) = (   1.000000   0.000000   0.000000 )  
               a(2) = (  -0.500000   0.866025   0.000000 )  
               a(3) = (   0.000000   0.000000   4.488532 )  

     reciprocal axes: (cart. coord. in units 2 pi/alat)
               b(1) = (  1.000000  0.577350  0.000000 )  
               b(2) = (  0.000000  1.154701  0.000000 )  
               b(3) = (  0.000000  0.000000  0.222790 )  


     PseudoPot. # 1 for Al read from file:
     ./Al.upf
     MD5 check sum: 4974d48a734c9d7d1eb6780a1419d19d
     Pseudo is Norm-conserving + core correction, Zval =  3.0
     Generated using ONCVPSP code by D. R. Hamann
     Using radial grid of 1876 points,  6 beta functions with: 
                l(1) =   0
                l(2) =   0
                l(3) =   1
                l(4) =   1
                l(5) =   2
                l(6) =   2

     atomic species   valence    mass     pseudopotential
        Al             3.00    29.98200     Al( 1.00)

      4 Sym. Ops. (no inversion) found



   Cartesian axes

     site n.     atom                  positions (alat units)
         1           Al  tau(   1) = (   0.0000001   0.5773571   0.0000000  )

     number of k points=     1  Methfessel-Paxton smearing, width (Ry)=  0.0500
                       cart. coord. in units 2pi/alat
        k(    1) = (   0.0000000   0.0000000   0.0000000), wk =   2.0000000

     Dense  grid:   224129 G-vectors     FFT dimensions: (  48,  48, 216)

     Estimated max dynamical RAM per process >      23.65 MB

     Estimated total dynamical RAM >     189.16 MB

     Initial potential from superposition of free atoms

     starting charge    2.99755, renormalised to    3.00000

     negative rho (up, down):  5.256E-06 0.000E+00
     Starting wfcs are    4 randomized atomic wfcs +    2 random wfcs

     total cpu time spent up to now is        1.6 secs

     Self-consistent Calculation

     iteration #  1     ecut=    80.00 Ry     beta= 0.40
     Davidson diagonalization with overlap
     ethr =  1.00E-02,  avg # of iterations =  9.0

     total cpu time spent up to now is        1.8 secs

     total energy              =      -4.53452077 Ry
     Harris-Foulkes estimate   =      -4.54423249 Ry
     estimated scf accuracy    <       0.03227285 Ry

     iteration #  2     ecut=    80.00 Ry     beta= 0.40
     Davidson diagonalization with overlap
     ethr =  1.08E-03,  avg # of iterations =  1.0

     total cpu time spent up to now is        1.9 secs

     total energy              =      -4.53290760 Ry
     Harris-Foulkes estimate   =      -4.53585894 Ry
     estimated scf accuracy    <       0.00743396 Ry

     iteration #  3     ecut=    80.00 Ry     beta= 0.40
     Davidson diagonalization with overlap
     ethr =  2.48E-04,  avg # of iterations =  7.0

     total cpu time spent up to now is        2.1 secs

     total energy              =      -4.53413090 Ry
     Harris-Foulkes estimate   =      -4.53414051 Ry
     estimated scf accuracy    <       0.00018511 Ry

     iteration #  4     ecut=    80.00 Ry     beta= 0.40
     Davidson diagonalization with overlap
     ethr =  6.17E-06,  avg # of iterations =  5.0

     total cpu time spent up to now is        2.2 secs

     total energy              =      -4.53415762 Ry
     Harris-Foulkes estimate   =      -4.53414657 Ry
     estimated scf accuracy    <       0.00007238 Ry

     iteration #  5     ecut=    80.00 Ry     beta= 0.40
     Davidson diagonalization with overlap
     ethr =  2.41E-06,  avg # of iterations =  3.0

     negative rho (up, down):  2.654E-07 0.000E+00

     total cpu time spent up to now is        2.3 secs

     total energy              =      -4.53416683 Ry
     Harris-Foulkes estimate   =      -4.53416562 Ry
     estimated scf accuracy    <       0.00000143 Ry

     iteration #  6     ecut=    80.00 Ry     beta= 0.40
     Davidson diagonalization with overlap
     ethr =  4.77E-08,  avg # of iterations =  3.0

     total cpu time spent up to now is        2.4 secs

     total energy              =      -4.53416677 Ry
     Harris-Foulkes estimate   =      -4.53416748 Ry
     estimated scf accuracy    <       0.00000242 Ry

     iteration #  7     ecut=    80.00 Ry     beta= 0.40
     Davidson diagonalization with overlap
     ethr =  4.77E-08,  avg # of iterations =  1.0

     total cpu time spent up to now is        2.5 secs

     End of self-consistent calculation

          k = 0.0000 0.0000 0.0000 ( 27893 PWs)   bands (ev):

    -9.2209  -3.8221  -1.2906  -1.2906  -0.1721   0.6851

     the Fermi energy is    -3.8221 ev

!    total energy              =      -4.53416678 Ry
     Harris-Foulkes estimate   =      -4.53416684 Ry
     estimated scf accuracy    <       0.00000027 Ry

     The total energy is the sum of the following terms:

     one-electron contribution =      -8.15160374 Ry
     hartree contribution      =       4.03468656 Ry
     xc contribution           =      -1.70084861 Ry
     ewald contribution        =       1.29770301 Ry
     smearing contrib. (-TS)   =      -0.01410401 Ry

     convergence has been achieved in   7 iterations

     Forces acting on atoms (cartesian axes, Ry/au):

     atom    1 type  1   force =     0.00000000    0.00000000    0.00000000

     Total force =     0.000000     Total SCF correction =     0.000001


     Computing stress (Cartesian axis) and pressure

          total   stress  (Ry/bohr**3)                   (kbar)     P=  -17.31
  -0.00017648   0.00000000   0.00000000        -25.96      0.00      0.00
   0.00000000  -0.00017648  -0.00000000          0.00    -25.96     -0.00
   0.00000000   0.00000000  -0.00000014          0.00      0.00     -0.02


     BFGS Geometry Optimization

     number of scf cycles    =   1
     number of bfgs steps    =   0

     enthalpy new            =      -4.5341667849 Ry

     new trust radius        =       0.0425083732 bohr
     new conv_thr            =       0.0000010000 Ry

     new unit-cell volume =   2300.21221 a.u.^3 (   340.85628 Ang^3 )
     density =      0.14606 g/cm^3

CELL_PARAMETERS (alat=  8.42024170)
   0.995587952   0.000000000   0.000000000
  -0.497793976   0.862204511   0.000000000
   0.000000000   0.000000000   4.488531801

ATOMIC_POSITIONS (angstrom)
Al       0.000000583   2.561237647   0.000000000



     Writing output data file 2al_planar_1x1_vcr.save/
     NEW-OLD atomic charge density approx. for the potential

     negative rho (up, down):  1.020E-07 0.000E+00
     extrapolated charge    2.97337, renormalised to    3.00000

     total cpu time spent up to now is        6.9 secs

     Self-consistent Calculation

     iteration #  1     ecut=    80.00 Ry     beta= 0.40
     Davidson diagonalization with overlap
     ethr =  1.00E-06,  avg # of iterations =  4.0

     negative rho (up, down):  5.403E-08 0.000E+00

     total cpu time spent up to now is        7.1 secs

     total energy              =      -4.53771354 Ry
     Harris-Foulkes estimate   =      -4.59594743 Ry
     estimated scf accuracy    <       0.00007333 Ry

     iteration #  2     ecut=    80.00 Ry     beta= 0.40
     Davidson diagonalization with overlap
     ethr =  2.44E-06,  avg # of iterations =  5.0

     negative rho (up, down):  3.140E-08 0.000E+00

     total cpu time spent up to now is        7.2 secs

     total energy              =      -4.53781480 Ry
     Harris-Foulkes estimate   =      -4.53781727 Ry
     estimated scf accuracy    <       0.00001022 Ry

     iteration #  3     ecut=    80.00 Ry     beta= 0.40
     Davidson diagonalization with overlap
     ethr =  3.41E-07,  avg # of iterations =  1.0

     total cpu time spent up to now is        7.3 secs

     total energy              =      -4.53781327 Ry
     Harris-Foulkes estimate   =      -4.53781501 Ry
     estimated scf accuracy    <       0.00000416 Ry

     iteration #  4     ecut=    80.00 Ry     beta= 0.40
     Davidson diagonalization with overlap
     ethr =  1.39E-07,  avg # of iterations =  2.0

     total cpu time spent up to now is        7.4 secs

     End of self-consistent calculation

          k = 0.0000 0.0000 0.0000 ( 27893 PWs)   bands (ev):

    -9.2524  -3.8435  -1.2617  -1.2617  -0.1705   0.6912

     the Fermi energy is    -3.8435 ev

!    total energy              =      -4.53781372 Ry
     Harris-Foulkes estimate   =      -4.53781427 Ry
     estimated scf accuracy    <       0.00000095 Ry

     The total energy is the sum of the following terms:

     one-electron contribution =      -8.21845482 Ry
     hartree contribution      =       4.06685900 Ry
     xc contribution           =      -1.70138997 Ry
     ewald contribution        =       1.32927637 Ry
     smearing contrib. (-TS)   =      -0.01410430 Ry

     convergence has been achieved in   4 iterations

     Forces acting on atoms (cartesian axes, Ry/au):

     atom    1 type  1   force =     0.00000000    0.00000000    0.00000000

     Total force =     0.000000     Total SCF correction =     0.000000


     Computing stress (Cartesian axis) and pressure

          total   stress  (Ry/bohr**3)                   (kbar)     P=  -17.68
  -0.00018048   0.00000000   0.00000000        -26.55      0.00      0.00
   0.00000000  -0.00018048   0.00000000          0.00    -26.55      0.00
   0.00000000   0.00000000   0.00000039          0.00      0.00      0.06


     number of scf cycles    =   2
     number of bfgs steps    =   1

     enthalpy old            =      -4.5341667849 Ry
     enthalpy new            =      -4.5378137152 Ry

     CASE: enthalpy_new < enthalpy_old


     WARNING: bfgs curvature condition failed, Theta= 0.786
     new trust radius        =       0.0467592120 bohr
     new conv_thr            =       0.0000000100 Ry

     new unit-cell volume =   2277.84113 a.u.^3 (   337.54123 Ang^3 )
     density =      0.14750 g/cm^3

CELL_PARAMETERS (alat=  8.42024170)
   0.990734700   0.000000000   0.000000000
  -0.495367350   0.858001557   0.000000000
   0.000000000   0.000000000   4.488531801

ATOMIC_POSITIONS (angstrom)
Al       0.000000581   2.548752484   0.000000000



     Writing output data file 2al_planar_1x1_vcr.save/
     NEW-OLD atomic charge density approx. for the potential

     negative rho (up, down):  2.897E-07 0.000E+00
     extrapolated charge    2.97056, renormalised to    3.00000

     total cpu time spent up to now is       11.1 secs

     Self-consistent Calculation

     iteration #  1     ecut=    80.00 Ry     beta= 0.40
     Davidson diagonalization with overlap
     ethr =  1.00E-06,  avg # of iterations =  5.0

     negative rho (up, down):  1.564E-07 0.000E+00

     total cpu time spent up to now is       11.3 secs

     total energy              =      -4.54179040 Ry
     Harris-Foulkes estimate   =      -4.60683595 Ry
     estimated scf accuracy    <       0.00007953 Ry

     iteration #  2     ecut=    80.00 Ry     beta= 0.40
     Davidson diagonalization with overlap
     ethr =  2.65E-06,  avg # of iterations =  5.0

     negative rho (up, down):  9.593E-08 0.000E+00

     total cpu time spent up to now is       11.4 secs

     total energy              =      -4.54191132 Ry
     Harris-Foulkes estimate   =      -4.54191471 Ry
     estimated scf accuracy    <       0.00001426 Ry

     iteration #  3     ecut=    80.00 Ry     beta= 0.40
     Davidson diagonalization with overlap
     ethr =  4.75E-07,  avg # of iterations =  1.0

     total cpu time spent up to now is       11.5 secs

     total energy              =      -4.54190895 Ry
     Harris-Foulkes estimate   =      -4.54191158 Ry
     estimated scf accuracy    <       0.00000600 Ry

     iteration #  4     ecut=    80.00 Ry     beta= 0.40
     Davidson diagonalization with overlap
     ethr =  2.00E-07,  avg # of iterations =  2.0

     total cpu time spent up to now is       11.6 secs

     total energy              =      -4.54190986 Ry
     Harris-Foulkes estimate   =      -4.54191034 Ry
     estimated scf accuracy    <       0.00000117 Ry

     iteration #  5     ecut=    80.00 Ry     beta= 0.40
     Davidson diagonalization with overlap
     ethr =  3.90E-08,  avg # of iterations =  1.0

     total cpu time spent up to now is       11.8 secs

     total energy              =      -4.54190987 Ry
     Harris-Foulkes estimate   =      -4.54190992 Ry
     estimated scf accuracy    <       0.00000015 Ry

     iteration #  6     ecut=    80.00 Ry     beta= 0.40
     Davidson diagonalization with overlap
     ethr =  5.04E-09,  avg # of iterations =  1.0

     total cpu time spent up to now is       11.9 secs

     total energy              =      -4.54190986 Ry
     Harris-Foulkes estimate   =      -4.54190988 Ry
     estimated scf accuracy    <       0.00000003 Ry

     iteration #  7     ecut=    80.00 Ry     beta= 0.40
     Davidson diagonalization with overlap
     ethr =  9.04E-10,  avg # of iterations =  2.0

     total cpu time spent up to now is       12.0 secs

     End of self-consistent calculation

          k = 0.0000 0.0000 0.0000 ( 27893 PWs)   bands (ev):

    -9.2699  -3.8536  -1.2111  -1.2111  -0.1641   0.6997

     the Fermi energy is    -3.8536 ev

!    total energy              =      -4.54190986 Ry
     Harris-Foulkes estimate   =      -4.54190987 Ry
     estimated scf accuracy    <          4.8E-10 Ry

     The total energy is the sum of the following terms:

     one-electron contribution =      -8.29222196 Ry
     hartree contribution      =       4.10123427 Ry
     xc contribution           =      -1.70141633 Ry
     ewald contribution        =       1.36459867 Ry
     smearing contrib. (-TS)   =      -0.01410451 Ry

     convergence has been achieved in   7 iterations

     Forces acting on atoms (cartesian axes, Ry/au):

     atom    1 type  1   force =     0.00000000    0.00000000    0.00000000

     Total force =     0.000000     Total SCF correction =     0.000000


     Computing stress (Cartesian axis) and pressure

          total   stress  (Ry/bohr**3)                   (kbar)     P=  -18.20
  -0.00018554  -0.00000000   0.00000000        -27.29     -0.00      0.00
  -0.00000000  -0.00018554  -0.00000000         -0.00    -27.29     -0.00
   0.00000000  -0.00000000   0.00000002          0.00     -0.00      0.00


     number of scf cycles    =   3
     number of bfgs steps    =   2

     enthalpy old            =      -4.5378137152 Ry
     enthalpy new            =      -4.5419098589 Ry

     CASE: enthalpy_new < enthalpy_old


     WARNING: bfgs curvature condition failed, Theta= 0.276
     new trust radius        =       0.0701388215 bohr
     new conv_thr            =       0.0000000100 Ry

     new unit-cell volume =   2244.48949 a.u.^3 (   332.59902 Ang^3 )
     density =      0.14969 g/cm^3

CELL_PARAMETERS (alat=  8.42024170)
   0.983454822   0.000000000   0.000000000
  -0.491727411   0.851697126   0.000000000
   0.000000000   0.000000000   4.488531801

ATOMIC_POSITIONS (angstrom)
Al       0.000000576   2.530024739   0.000000000



     Writing output data file 2al_planar_1x1_vcr.save/
     NEW-OLD atomic charge density approx. for the potential

     negative rho (up, down):  6.924E-07 0.000E+00
     extrapolated charge    2.95546, renormalised to    3.00000

     total cpu time spent up to now is       15.8 secs

     Self-consistent Calculation

     iteration #  1     ecut=    80.00 Ry     beta= 0.40
     Davidson diagonalization with overlap
     ethr =  1.00E-06,  avg # of iterations =  5.0

     negative rho (up, down):  3.923E-07 0.000E+00

     total cpu time spent up to now is       15.9 secs

     total energy              =      -4.54794922 Ry
     Harris-Foulkes estimate   =      -4.64779135 Ry
     estimated scf accuracy    <       0.00019515 Ry

     iteration #  2     ecut=    80.00 Ry     beta= 0.40
     Davidson diagonalization with overlap
     ethr =  6.50E-06,  avg # of iterations =  5.0

     negative rho (up, down):  2.376E-07 0.000E+00

     total cpu time spent up to now is       16.0 secs

     total energy              =      -4.54822498 Ry
     Harris-Foulkes estimate   =      -4.54823159 Ry
     estimated scf accuracy    <       0.00002792 Ry

     iteration #  3     ecut=    80.00 Ry     beta= 0.40
     Davidson diagonalization with overlap
     ethr =  9.31E-07,  avg # of iterations =  1.0

     negative rho (up, down):  1.022E-08 0.000E+00

     total cpu time spent up to now is       16.1 secs

     total energy              =      -4.54822062 Ry
     Harris-Foulkes estimate   =      -4.54822554 Ry
     estimated scf accuracy    <       0.00001137 Ry

     iteration #  4     ecut=    80.00 Ry     beta= 0.40
     Davidson diagonalization with overlap
     ethr =  3.79E-07,  avg # of iterations =  2.0

     total cpu time spent up to now is       16.2 secs

     total energy              =      -4.54822228 Ry
     Harris-Foulkes estimate   =      -4.54822317 Ry
     estimated scf accuracy    <       0.00000220 Ry

     iteration #  5     ecut=    80.00 Ry     beta= 0.40
     Davidson diagonalization with overlap
     ethr =  7.33E-08,  avg # of iterations =  1.0

     total cpu time spent up to now is       16.3 secs

     total energy              =      -4.54822227 Ry
     Harris-Foulkes estimate   =      -4.54822239 Ry
     estimated scf accuracy    <       0.00000033 Ry

     iteration #  6     ecut=    80.00 Ry     beta= 0.40
     Davidson diagonalization with overlap
     ethr =  1.09E-08,  avg # of iterations =  1.0

     total cpu time spent up to now is       16.4 secs

     total energy              =      -4.54822227 Ry
     Harris-Foulkes estimate   =      -4.54822230 Ry
     estimated scf accuracy    <       0.00000005 Ry

     iteration #  7     ecut=    80.00 Ry     beta= 0.40
     Davidson diagonalization with overlap
     ethr =  1.68E-09,  avg # of iterations =  2.0

     total cpu time spent up to now is       16.5 secs

     End of self-consistent calculation

          k = 0.0000 0.0000 0.0000 ( 27893 PWs)   bands (ev):

    -9.3075  -3.8771  -1.1437  -1.1437  -0.1582   0.7114

     the Fermi energy is    -3.8771 ev

!    total energy              =      -4.54822228 Ry
     Harris-Foulkes estimate   =      -4.54822228 Ry
     estimated scf accuracy    <          6.3E-10 Ry

     The total energy is the sum of the following terms:

     one-electron contribution =      -8.40598425 Ry
     hartree contribution      =       4.15496811 Ry
     xc contribution           =      -1.70187439 Ry
     ewald contribution        =       1.41877290 Ry
     smearing contrib. (-TS)   =      -0.01410465 Ry

     convergence has been achieved in   7 iterations

     Forces acting on atoms (cartesian axes, Ry/au):

     atom    1 type  1   force =     0.00000000    0.00000000    0.00000000

     Total force =     0.000000     Total SCF correction =     0.000000


     Computing stress (Cartesian axis) and pressure

          total   stress  (Ry/bohr**3)                   (kbar)     P=  -18.93
  -0.00019305  -0.00000000  -0.00000000        -28.40     -0.00     -0.00
  -0.00000000  -0.00019305   0.00000000         -0.00    -28.40      0.00
   0.00000000   0.00000000   0.00000002          0.00      0.00      0.00


     number of scf cycles    =   4
     number of bfgs steps    =   3

     enthalpy old            =      -4.5419098589 Ry
     enthalpy new            =      -4.5482222838 Ry

     CASE: enthalpy_new < enthalpy_old


     WARNING: bfgs curvature condition failed, Theta= 0.350
     new trust radius        =       0.1052082402 bohr
     new conv_thr            =       0.0000000100 Ry

     new unit-cell volume =   2194.92322 a.u.^3 (   325.25406 Ang^3 )
     density =      0.15307 g/cm^3

CELL_PARAMETERS (alat=  8.42024170)
   0.972535004   0.000000000   0.000000000
  -0.486267502   0.842240479   0.000000000
   0.000000000   0.000000000   4.488531801

ATOMIC_POSITIONS (angstrom)
Al       0.000000570   2.501933118   0.000000000



     Writing output data file 2al_planar_1x1_vcr.save/
     NEW-OLD atomic charge density approx. for the potential

     negative rho (up, down):  8.135E-07 0.000E+00
     extrapolated charge    2.93231, renormalised to    3.00000

     total cpu time spent up to now is       20.2 secs

     Self-consistent Calculation

     iteration #  1     ecut=    80.00 Ry     beta= 0.40
     Davidson diagonalization with overlap
     ethr =  1.00E-06,  avg # of iterations =  5.0

     negative rho (up, down):  4.734E-07 0.000E+00

     total cpu time spent up to now is       20.4 secs

     total energy              =      -4.55746358 Ry
     Harris-Foulkes estimate   =      -4.71253669 Ry
     estimated scf accuracy    <       0.00044800 Ry

     iteration #  2     ecut=    80.00 Ry     beta= 0.40
     Davidson diagonalization with overlap
     ethr =  1.49E-05,  avg # of iterations =  5.0

     negative rho (up, down):  2.841E-07 0.000E+00

     total cpu time spent up to now is       20.5 secs

     total energy              =      -4.55808445 Ry
     Harris-Foulkes estimate   =      -4.55809843 Ry
     estimated scf accuracy    <       0.00005838 Ry

     iteration #  3     ecut=    80.00 Ry     beta= 0.40
     Davidson diagonalization with overlap
     ethr =  1.95E-06,  avg # of iterations =  2.0

     negative rho (up, down):  1.008E-08 0.000E+00

     total cpu time spent up to now is       20.6 secs

     total energy              =      -4.55807554 Ry
     Harris-Foulkes estimate   =      -4.55808563 Ry
     estimated scf accuracy    <       0.00002338 Ry

     iteration #  4     ecut=    80.00 Ry     beta= 0.40
     Davidson diagonalization with overlap
     ethr =  7.79E-07,  avg # of iterations =  2.0

     total cpu time spent up to now is       20.7 secs

     total energy              =      -4.55807892 Ry
     Harris-Foulkes estimate   =      -4.55808057 Ry
     estimated scf accuracy    <       0.00000406 Ry

     iteration #  5     ecut=    80.00 Ry     beta= 0.40
     Davidson diagonalization with overlap
     ethr =  1.35E-07,  avg # of iterations =  1.0

     total cpu time spent up to now is       20.9 secs

     total energy              =      -4.55807892 Ry
     Harris-Foulkes estimate   =      -4.55807912 Ry
     estimated scf accuracy    <       0.00000051 Ry

     iteration #  6     ecut=    80.00 Ry     beta= 0.40
     Davidson diagonalization with overlap
     ethr =  1.71E-08,  avg # of iterations =  2.0

     total cpu time spent up to now is       21.0 secs

     total energy              =      -4.55807895 Ry
     Harris-Foulkes estimate   =      -4.55807897 Ry
     estimated scf accuracy    <       0.00000003 Ry

     iteration #  7     ecut=    80.00 Ry     beta= 0.40
     Davidson diagonalization with overlap
     ethr =  1.07E-09,  avg # of iterations =  3.0

     total cpu time spent up to now is       21.1 secs

     End of self-consistent calculation

          k = 0.0000 0.0000 0.0000 ( 27893 PWs)   bands (ev):

    -9.3651  -3.9128  -1.0367  -1.0367  -0.1502   0.7294

     the Fermi energy is    -3.9128 ev

!    total energy              =      -4.55807896 Ry
     Harris-Foulkes estimate   =      -4.55807896 Ry
     estimated scf accuracy    <          2.4E-09 Ry

     The total energy is the sum of the following terms:

     one-electron contribution =      -8.58253422 Ry
     hartree contribution      =       4.23853053 Ry
     xc contribution           =      -1.70277652 Ry
     ewald contribution        =       1.50280597 Ry
     smearing contrib. (-TS)   =      -0.01410472 Ry

     convergence has been achieved in   7 iterations

     Forces acting on atoms (cartesian axes, Ry/au):

     atom    1 type  1   force =     0.00000000    0.00000000    0.00000000

     Total force =     0.000000     Total SCF correction =     0.000000


     Computing stress (Cartesian axis) and pressure

          total   stress  (Ry/bohr**3)                   (kbar)     P=  -20.08
  -0.00020479  -0.00000000   0.00000000        -30.13     -0.00      0.00
  -0.00000000  -0.00020479   0.00000000         -0.00    -30.13      0.00
  -0.00000000   0.00000000   0.00000001         -0.00      0.00      0.00


     number of scf cycles    =   5
     number of bfgs steps    =   4

     enthalpy old            =      -4.5482222838 Ry
     enthalpy new            =      -4.5580789630 Ry

     CASE: enthalpy_new < enthalpy_old


     WARNING: bfgs curvature condition failed, Theta= 0.461
     new trust radius        =       0.1578123786 bohr
     new conv_thr            =       0.0000000100 Ry

     new unit-cell volume =   2121.61146 a.u.^3 (   314.39038 Ang^3 )
     density =      0.15836 g/cm^3

CELL_PARAMETERS (alat=  8.42024170)
   0.956155277   0.000000000   0.000000000
  -0.478077639   0.828055501   0.000000000
   0.000000000   0.000000000   4.488531801

ATOMIC_POSITIONS (angstrom)
Al       0.000000560   2.459795668   0.000000000



     Writing output data file 2al_planar_1x1_vcr.save/
     NEW-OLD atomic charge density approx. for the potential

     negative rho (up, down):  2.123E-06 0.000E+00
     extrapolated charge    2.89642, renormalised to    3.00000

     total cpu time spent up to now is       24.8 secs

     Self-consistent Calculation

     iteration #  1     ecut=    80.00 Ry     beta= 0.40
     Davidson diagonalization with overlap
     ethr =  1.00E-06,  avg # of iterations =  4.0

     negative rho (up, down):  1.285E-06 0.000E+00

     total cpu time spent up to now is       24.9 secs

     total energy              =      -4.57237443 Ry
     Harris-Foulkes estimate   =      -4.81763964 Ry
     estimated scf accuracy    <       0.00104320 Ry

     iteration #  2     ecut=    80.00 Ry     beta= 0.40
     Davidson diagonalization with overlap
     ethr =  3.48E-05,  avg # of iterations =  4.0

     negative rho (up, down):  7.781E-07 0.000E+00

     total cpu time spent up to now is       25.1 secs

     total energy              =      -4.57377782 Ry
     Harris-Foulkes estimate   =      -4.57380606 Ry
     estimated scf accuracy    <       0.00011684 Ry

     iteration #  3     ecut=    80.00 Ry     beta= 0.40
     Davidson diagonalization with overlap
     ethr =  3.89E-06,  avg # of iterations =  3.0

     negative rho (up, down):  2.222E-08 0.000E+00

     total cpu time spent up to now is       25.2 secs

     total energy              =      -4.57376089 Ry
     Harris-Foulkes estimate   =      -4.57378030 Ry
     estimated scf accuracy    <       0.00004568 Ry

     iteration #  4     ecut=    80.00 Ry     beta= 0.40
     Davidson diagonalization with overlap
     ethr =  1.52E-06,  avg # of iterations =  2.0

     negative rho (up, down):  2.381E-08 0.000E+00

     total cpu time spent up to now is       25.3 secs

     total energy              =      -4.57376735 Ry
     Harris-Foulkes estimate   =      -4.57377010 Ry
     estimated scf accuracy    <       0.00000677 Ry

     iteration #  5     ecut=    80.00 Ry     beta= 0.40
     Davidson diagonalization with overlap
     ethr =  2.26E-07,  avg # of iterations =  1.0

     total cpu time spent up to now is       25.4 secs

     total energy              =      -4.57376723 Ry
     Harris-Foulkes estimate   =      -4.57376766 Ry
     estimated scf accuracy    <       0.00000093 Ry

     iteration #  6     ecut=    80.00 Ry     beta= 0.40
     Davidson diagonalization with overlap
     ethr =  3.08E-08,  avg # of iterations =  2.0

     total cpu time spent up to now is       25.5 secs

     End of self-consistent calculation

          k = 0.0000 0.0000 0.0000 ( 27893 PWs)   bands (ev):

    -9.4557  -3.9678  -0.8635  -0.8635  -0.1401   0.7568

     the Fermi energy is    -3.9678 ev

!    total energy              =      -4.57376735 Ry
     Harris-Foulkes estimate   =      -4.57376736 Ry
     estimated scf accuracy    <          4.2E-09 Ry

     The total energy is the sum of the following terms:

     one-electron contribution =      -8.86139369 Ry
     hartree contribution      =       4.37101132 Ry
     xc contribution           =      -1.70470127 Ry
     ewald contribution        =       1.63542103 Ry
     smearing contrib. (-TS)   =      -0.01410474 Ry

     convergence has been achieved in   6 iterations

     Forces acting on atoms (cartesian axes, Ry/au):

     atom    1 type  1   force =     0.00000000    0.00000000    0.00000000

     Total force =     0.000000     Total SCF correction =     0.000000


     Computing stress (Cartesian axis) and pressure

          total   stress  (Ry/bohr**3)                   (kbar)     P=  -21.91
  -0.00022345  -0.00000000   0.00000000        -32.87     -0.00      0.00
  -0.00000000  -0.00022345  -0.00000000         -0.00    -32.87     -0.00
  -0.00000000   0.00000000   0.00000005         -0.00      0.00      0.01


     number of scf cycles    =   6
     number of bfgs steps    =   5

     enthalpy old            =      -4.5580789630 Ry
     enthalpy new            =      -4.5737673476 Ry

     CASE: enthalpy_new < enthalpy_old


     WARNING: bfgs curvature condition failed, Theta= 0.668
     uphill step: resetting bfgs history

     new trust radius        =       0.0514624212 bohr
     new conv_thr            =       0.0000000100 Ry

     new unit-cell volume =   2097.97360 a.u.^3 (   310.88761 Ang^3 )
     density =      0.16014 g/cm^3

CELL_PARAMETERS (alat=  8.42024170)
   0.950813869   0.000000000   0.000000000
  -0.475406935   0.823429706   0.000000000
   0.000000000   0.000000000   4.488531801

ATOMIC_POSITIONS (angstrom)
Al       0.000000557   2.446054428   0.000000000



     Writing output data file 2al_planar_1x1_vcr.save/
     NEW-OLD atomic charge density approx. for the potential

     negative rho (up, down):  5.140E-07 0.000E+00
     extrapolated charge    2.96623, renormalised to    3.00000

     total cpu time spent up to now is       29.3 secs

     Self-consistent Calculation

     iteration #  1     ecut=    80.00 Ry     beta= 0.40
     Davidson diagonalization with overlap
     ethr =  1.00E-06,  avg # of iterations =  5.0

     negative rho (up, down):  2.871E-07 0.000E+00

     total cpu time spent up to now is       29.4 secs

     total energy              =      -4.57896033 Ry
     Harris-Foulkes estimate   =      -4.66052897 Ry
     estimated scf accuracy    <       0.00011892 Ry

     iteration #  2     ecut=    80.00 Ry     beta= 0.40
     Davidson diagonalization with overlap
     ethr =  3.96E-06,  avg # of iterations =  5.0

     negative rho (up, down):  1.714E-07 0.000E+00

     total cpu time spent up to now is       29.6 secs

     total energy              =      -4.57912635 Ry
     Harris-Foulkes estimate   =      -4.57912976 Ry
     estimated scf accuracy    <       0.00001424 Ry

     iteration #  3     ecut=    80.00 Ry     beta= 0.40
     Davidson diagonalization with overlap
     ethr =  4.75E-07,  avg # of iterations =  1.0

     total cpu time spent up to now is       29.7 secs

     total energy              =      -4.57912429 Ry
     Harris-Foulkes estimate   =      -4.57912666 Ry
     estimated scf accuracy    <       0.00000570 Ry

     iteration #  4     ecut=    80.00 Ry     beta= 0.40
     Davidson diagonalization with overlap
     ethr =  1.90E-07,  avg # of iterations =  2.0

     total cpu time spent up to now is       29.8 secs

     total energy              =      -4.57912510 Ry
     Harris-Foulkes estimate   =      -4.57912558 Ry
     estimated scf accuracy    <       0.00000116 Ry

     iteration #  5     ecut=    80.00 Ry     beta= 0.40
     Davidson diagonalization with overlap
     ethr =  3.86E-08,  avg # of iterations =  1.0

     total cpu time spent up to now is       29.9 secs

     total energy              =      -4.57912506 Ry
     Harris-Foulkes estimate   =      -4.57912515 Ry
     estimated scf accuracy    <       0.00000019 Ry

     iteration #  6     ecut=    80.00 Ry     beta= 0.40
     Davidson diagonalization with overlap
     ethr =  6.47E-09,  avg # of iterations =  2.0

     total cpu time spent up to now is       30.0 secs

     End of self-consistent calculation

          k = 0.0000 0.0000 0.0000 ( 27893 PWs)   bands (ev):

    -9.4861  -3.9860  -0.8033  -0.8033  -0.1373   0.7661

     the Fermi energy is    -3.9860 ev

!    total energy              =      -4.57912508 Ry
     Harris-Foulkes estimate   =      -4.57912508 Ry
     estimated scf accuracy    <          3.4E-09 Ry

     The total energy is the sum of the following terms:

     one-electron contribution =      -8.95611768 Ry
     hartree contribution      =       4.41610740 Ry
     xc contribution           =      -1.70546568 Ry
     ewald contribution        =       1.68045563 Ry
     smearing contrib. (-TS)   =      -0.01410474 Ry

     convergence has been achieved in   6 iterations

     Forces acting on atoms (cartesian axes, Ry/au):

     atom    1 type  1   force =     0.00000000    0.00000000    0.00000000

     Total force =     0.000000     Total SCF correction =     0.000000


     Computing stress (Cartesian axis) and pressure

          total   stress  (Ry/bohr**3)                   (kbar)     P=  -22.54
  -0.00022984  -0.00000000   0.00000000        -33.81     -0.00      0.00
  -0.00000000  -0.00022984  -0.00000000         -0.00    -33.81     -0.00
  -0.00000000   0.00000000   0.00000005         -0.00      0.00      0.01


     number of scf cycles    =   7
     number of bfgs steps    =   6

     enthalpy old            =      -4.5737673476 Ry
     enthalpy new            =      -4.5791250771 Ry

     CASE: enthalpy_new < enthalpy_old


     WARNING: bfgs curvature condition failed, Theta= 0.782
     new trust radius        =       0.0566086635 bohr
     new conv_thr            =       0.0000000100 Ry

     new unit-cell volume =   2072.12490 a.u.^3 (   307.05723 Ang^3 )
     density =      0.16214 g/cm^3

CELL_PARAMETERS (alat=  8.42024170)
   0.944938321  -0.000000000   0.000000000
  -0.472469161   0.818341332   0.000000000
   0.000000000   0.000000000   4.488531801

ATOMIC_POSITIONS (angstrom)
Al       0.000000554   2.430939064   0.000000000



     Writing output data file 2al_planar_1x1_vcr.save/
     NEW-OLD atomic charge density approx. for the potential

     negative rho (up, down):  5.371E-07 0.000E+00
     extrapolated charge    2.96261, renormalised to    3.00000

     total cpu time spent up to now is       33.7 secs

     Self-consistent Calculation

     iteration #  1     ecut=    80.00 Ry     beta= 0.40
     Davidson diagonalization with overlap
     ethr =  1.00E-06,  avg # of iterations =  5.0

     negative rho (up, down):  3.027E-07 0.000E+00

     total cpu time spent up to now is       33.9 secs

     total energy              =      -4.58495706 Ry
     Harris-Foulkes estimate   =      -4.67647559 Ry
     estimated scf accuracy    <       0.00014686 Ry

     iteration #  2     ecut=    80.00 Ry     beta= 0.40
     Davidson diagonalization with overlap
     ethr =  4.90E-06,  avg # of iterations =  5.0

     negative rho (up, down):  1.836E-07 0.000E+00

     total cpu time spent up to now is       34.0 secs

     total energy              =      -4.58516082 Ry
     Harris-Foulkes estimate   =      -4.58516482 Ry
     estimated scf accuracy    <       0.00001680 Ry

     iteration #  3     ecut=    80.00 Ry     beta= 0.40
     Davidson diagonalization with overlap
     ethr =  5.60E-07,  avg # of iterations =  1.0

     negative rho (up, down):  1.313E-08 0.000E+00

     total cpu time spent up to now is       34.1 secs

     total energy              =      -4.58515837 Ry
     Harris-Foulkes estimate   =      -4.58516118 Ry
     estimated scf accuracy    <       0.00000675 Ry

     iteration #  4     ecut=    80.00 Ry     beta= 0.40
     Davidson diagonalization with overlap
     ethr =  2.25E-07,  avg # of iterations =  2.0

     total cpu time spent up to now is       34.2 secs

     total energy              =      -4.58515936 Ry
     Harris-Foulkes estimate   =      -4.58515995 Ry
     estimated scf accuracy    <       0.00000155 Ry

     iteration #  5     ecut=    80.00 Ry     beta= 0.40
     Davidson diagonalization with overlap
     ethr =  5.18E-08,  avg # of iterations =  1.0

     total cpu time spent up to now is       34.3 secs

     total energy              =      -4.58515928 Ry
     Harris-Foulkes estimate   =      -4.58515942 Ry
     estimated scf accuracy    <       0.00000033 Ry

     iteration #  6     ecut=    80.00 Ry     beta= 0.40
     Davidson diagonalization with overlap
     ethr =  1.11E-08,  avg # of iterations =  1.0

     total cpu time spent up to now is       34.4 secs

     total energy              =      -4.58515929 Ry
     Harris-Foulkes estimate   =      -4.58515931 Ry
     estimated scf accuracy    <       0.00000003 Ry

     iteration #  7     ecut=    80.00 Ry     beta= 0.40
     Davidson diagonalization with overlap
     ethr =  8.37E-10,  avg # of iterations =  2.0

     total cpu time spent up to now is       34.5 secs

     End of self-consistent calculation

          k = 0.0000 0.0000 0.0000 ( 27893 PWs)   bands (ev):

    -9.5196  -4.0057  -0.7343  -0.7343  -0.1343   0.7762

     the Fermi energy is    -4.0057 ev

!    total energy              =      -4.58515930 Ry
     Harris-Foulkes estimate   =      -4.58515930 Ry
     estimated scf accuracy    <          6.9E-10 Ry

     The total energy is the sum of the following terms:

     one-electron contribution =      -9.06253624 Ry
     hartree contribution      =       4.46680619 Ry
     xc contribution           =      -1.70637723 Ry
     ewald contribution        =       1.73105271 Ry
     smearing contrib. (-TS)   =      -0.01410474 Ry

     convergence has been achieved in   7 iterations

     Forces acting on atoms (cartesian axes, Ry/au):

     atom    1 type  1   force =     0.00000000    0.00000000    0.00000000

     Total force =     0.000000     Total SCF correction =     0.000000


     Computing stress (Cartesian axis) and pressure

          total   stress  (Ry/bohr**3)                   (kbar)     P=  -23.25
  -0.00023706  -0.00000000  -0.00000000        -34.87     -0.00     -0.00
  -0.00000000  -0.00023706  -0.00000000         -0.00    -34.87     -0.00
  -0.00000000  -0.00000000   0.00000002         -0.00     -0.00      0.00


     number of scf cycles    =   8
     number of bfgs steps    =   7

     enthalpy old            =      -4.5791250771 Ry
     enthalpy new            =      -4.5851593006 Ry

     CASE: enthalpy_new < enthalpy_old


     WARNING: bfgs curvature condition failed, Theta= 0.364
     new trust radius        =       0.0849129955 bohr
     new conv_thr            =       0.0000000100 Ry

     new unit-cell volume =   2033.65227 a.u.^3 (   301.35617 Ang^3 )
     density =      0.16521 g/cm^3

CELL_PARAMETERS (alat=  8.42024170)
   0.936124998  -0.000000000   0.000000000
  -0.468062499   0.810708771   0.000000000
   0.000000000   0.000000000   4.488531801

ATOMIC_POSITIONS (angstrom)
Al       0.000000549   2.408266018   0.000000000



     Writing output data file 2al_planar_1x1_vcr.save/
     NEW-OLD atomic charge density approx. for the potential

     negative rho (up, down):  1.041E-06 0.000E+00
     extrapolated charge    2.94329, renormalised to    3.00000

     total cpu time spent up to now is       38.3 secs

     Self-consistent Calculation

     iteration #  1     ecut=    80.00 Ry     beta= 0.40
     Davidson diagonalization with overlap
     ethr =  1.00E-06,  avg # of iterations =  5.0

     negative rho (up, down):  6.059E-07 0.000E+00

     total cpu time spent up to now is       38.5 secs

     total energy              =      -4.59403501 Ry
     Harris-Foulkes estimate   =      -4.73544843 Ry
     estimated scf accuracy    <       0.00033832 Ry

     iteration #  2     ecut=    80.00 Ry     beta= 0.40
     Davidson diagonalization with overlap
     ethr =  1.13E-05,  avg # of iterations =  5.0

     negative rho (up, down):  3.673E-07 0.000E+00

     total cpu time spent up to now is       38.6 secs

     total energy              =      -4.59449497 Ry
     Harris-Foulkes estimate   =      -4.59450359 Ry
     estimated scf accuracy    <       0.00003528 Ry

     iteration #  3     ecut=    80.00 Ry     beta= 0.40
     Davidson diagonalization with overlap
     ethr =  1.18E-06,  avg # of iterations =  1.0

     negative rho (up, down):  2.539E-08 0.000E+00

     total cpu time spent up to now is       38.7 secs

     total energy              =      -4.59448993 Ry
     Harris-Foulkes estimate   =      -4.59449575 Ry
     estimated scf accuracy    <       0.00001392 Ry

     iteration #  4     ecut=    80.00 Ry     beta= 0.40
     Davidson diagonalization with overlap
     ethr =  4.64E-07,  avg # of iterations =  2.0

     total cpu time spent up to now is       38.8 secs

     total energy              =      -4.59449199 Ry
     Harris-Foulkes estimate   =      -4.59449308 Ry
     estimated scf accuracy    <       0.00000292 Ry

     iteration #  5     ecut=    80.00 Ry     beta= 0.40
     Davidson diagonalization with overlap
     ethr =  9.72E-08,  avg # of iterations =  1.0

     total cpu time spent up to now is       38.9 secs

     total energy              =      -4.59449182 Ry
     Harris-Foulkes estimate   =      -4.59449209 Ry
     estimated scf accuracy    <       0.00000061 Ry

     iteration #  6     ecut=    80.00 Ry     beta= 0.40
     Davidson diagonalization with overlap
     ethr =  2.02E-08,  avg # of iterations =  2.0

     total cpu time spent up to now is       39.0 secs

     total energy              =      -4.59449187 Ry
     Harris-Foulkes estimate   =      -4.59449188 Ry
     estimated scf accuracy    <       0.00000002 Ry

     iteration #  7     ecut=    80.00 Ry     beta= 0.40
     Davidson diagonalization with overlap
     ethr =  5.11E-10,  avg # of iterations =  2.0

     total cpu time spent up to now is       39.1 secs

     End of self-consistent calculation

          k = 0.0000 0.0000 0.0000 ( 27893 PWs)   bands (ev):

    -9.5714  -4.0360  -0.6268  -0.6268  -0.1303   0.7915

     the Fermi energy is    -4.0360 ev

!    total energy              =      -4.59449188 Ry
     Harris-Foulkes estimate   =      -4.59449187 Ry
     estimated scf accuracy    <          2.0E-09 Ry

     The total energy is the sum of the following terms:

     one-electron contribution =      -9.22674060 Ry
     hartree contribution      =       4.54521169 Ry
     xc contribution           =      -1.70795131 Ry
     ewald contribution        =       1.80909309 Ry
     smearing contrib. (-TS)   =      -0.01410474 Ry

     convergence has been achieved in   7 iterations

     Forces acting on atoms (cartesian axes, Ry/au):

     atom    1 type  1   force =     0.00000000    0.00000000    0.00000000

     Total force =     0.000000     Total SCF correction =     0.000000


     Computing stress (Cartesian axis) and pressure

          total   stress  (Ry/bohr**3)                   (kbar)     P=  -24.34
  -0.00024819  -0.00000000   0.00000000        -36.51     -0.00      0.00
  -0.00000000  -0.00024819   0.00000000         -0.00    -36.51      0.00
   0.00000000   0.00000000   0.00000001          0.00      0.00      0.00


     number of scf cycles    =   9
     number of bfgs steps    =   8

     enthalpy old            =      -4.5851593006 Ry
     enthalpy new            =      -4.5944918762 Ry

     CASE: enthalpy_new < enthalpy_old


     WARNING: bfgs curvature condition failed, Theta= 0.488
     new trust radius        =       0.1273694938 bohr
     new conv_thr            =       0.0000000100 Ry

     new unit-cell volume =   1976.61928 a.u.^3 (   292.90475 Ang^3 )
     density =      0.16997 g/cm^3

CELL_PARAMETERS (alat=  8.42024170)
   0.922905015  -0.000000000   0.000000000
  -0.461452507   0.799259930   0.000000000
   0.000000000   0.000000000   4.488531801

ATOMIC_POSITIONS (angstrom)
Al       0.000000541   2.374256451   0.000000000



     Writing output data file 2al_planar_1x1_vcr.save/
     NEW-OLD atomic charge density approx. for the potential

     negative rho (up, down):  1.536E-06 0.000E+00
     extrapolated charge    2.91351, renormalised to    3.00000

     total cpu time spent up to now is       43.0 secs

     Self-consistent Calculation

     iteration #  1     ecut=    80.00 Ry     beta= 0.40
     Davidson diagonalization with overlap
     ethr =  1.00E-06,  avg # of iterations =  4.0

     negative rho (up, down):  9.151E-07 0.000E+00

     total cpu time spent up to now is       43.1 secs

     total energy              =      -4.60810335 Ry
     Harris-Foulkes estimate   =      -4.82998681 Ry
     estimated scf accuracy    <       0.00078439 Ry

     iteration #  2     ecut=    80.00 Ry     beta= 0.40
     Davidson diagonalization with overlap
     ethr =  2.61E-05,  avg # of iterations =  5.0

     negative rho (up, down):  5.449E-07 0.000E+00

     total cpu time spent up to now is       43.2 secs

     total energy              =      -4.60914430 Ry
     Harris-Foulkes estimate   =      -4.60916197 Ry
     estimated scf accuracy    <       0.00007215 Ry

     iteration #  3     ecut=    80.00 Ry     beta= 0.40
     Davidson diagonalization with overlap
     ethr =  2.41E-06,  avg # of iterations =  2.0

     negative rho (up, down):  3.396E-08 0.000E+00

     total cpu time spent up to now is       43.3 secs

     total energy              =      -4.60913429 Ry
     Harris-Foulkes estimate   =      -4.60914588 Ry
     estimated scf accuracy    <       0.00002783 Ry

     iteration #  4     ecut=    80.00 Ry     beta= 0.40
     Davidson diagonalization with overlap
     ethr =  9.28E-07,  avg # of iterations =  2.0

     total cpu time spent up to now is       43.4 secs

     total energy              =      -4.60913830 Ry
     Harris-Foulkes estimate   =      -4.60914025 Ry
     estimated scf accuracy    <       0.00000515 Ry

     iteration #  5     ecut=    80.00 Ry     beta= 0.40
     Davidson diagonalization with overlap
     ethr =  1.72E-07,  avg # of iterations =  1.0

     total cpu time spent up to now is       43.5 secs

     total energy              =      -4.60913801 Ry
     Harris-Foulkes estimate   =      -4.60913849 Ry
     estimated scf accuracy    <       0.00000097 Ry

     iteration #  6     ecut=    80.00 Ry     beta= 0.40
     Davidson diagonalization with overlap
     ethr =  3.25E-08,  avg # of iterations =  2.0

     total cpu time spent up to now is       43.6 secs

     End of self-consistent calculation

          k = 0.0000 0.0000 0.0000 ( 27893 PWs)   bands (ev):

    -9.6523  -4.0826  -0.4556  -0.4556  -0.1254   0.8147

     the Fermi energy is    -4.0826 ev

!    total energy              =      -4.60913812 Ry
     Harris-Foulkes estimate   =      -4.60913814 Ry
     estimated scf accuracy    <          3.2E-09 Ry

     The total energy is the sum of the following terms:

     one-electron contribution =      -9.48373507 Ry
     hartree contribution      =       4.66827686 Ry
     xc contribution           =      -1.71076623 Ry
     ewald contribution        =       1.93119106 Ry
     smearing contrib. (-TS)   =      -0.01410474 Ry

     convergence has been achieved in   6 iterations

     Forces acting on atoms (cartesian axes, Ry/au):

     atom    1 type  1   force =     0.00000000    0.00000000    0.00000000

     Total force =     0.000000     Total SCF correction =     0.000000


     Computing stress (Cartesian axis) and pressure

          total   stress  (Ry/bohr**3)                   (kbar)     P=  -26.05
  -0.00026560  -0.00000000   0.00000000        -39.07     -0.00      0.00
  -0.00000000  -0.00026560   0.00000000         -0.00    -39.07      0.00
  -0.00000000  -0.00000000   0.00000003         -0.00     -0.00      0.01


     number of scf cycles    =  10
     number of bfgs steps    =   9

     enthalpy old            =      -4.5944918762 Ry
     enthalpy new            =      -4.6091381180 Ry

     CASE: enthalpy_new < enthalpy_old


     WARNING: bfgs curvature condition failed, Theta= 0.725
     uphill step: resetting bfgs history

     new trust radius        =       0.0590410962 bohr
     new conv_thr            =       0.0000000100 Ry

     new unit-cell volume =   1950.45725 a.u.^3 (   289.02794 Ang^3 )
     density =      0.17225 g/cm^3

CELL_PARAMETERS (alat=  8.42024170)
   0.916776998  -0.000000000   0.000000000
  -0.458388499   0.793952912   0.000000000
   0.000000000   0.000000000   4.488531801

ATOMIC_POSITIONS (angstrom)
Al       0.000000537   2.358491589   0.000000000



     Writing output data file 2al_planar_1x1_vcr.save/
     NEW-OLD atomic charge density approx. for the potential

     negative rho (up, down):  7.401E-07 0.000E+00
     extrapolated charge    2.95979, renormalised to    3.00000

     total cpu time spent up to now is       47.4 secs

     Self-consistent Calculation

     iteration #  1     ecut=    80.00 Ry     beta= 0.40
     Davidson diagonalization with overlap
     ethr =  1.00E-06,  avg # of iterations =  5.0

     negative rho (up, down):  4.235E-07 0.000E+00

     total cpu time spent up to now is       47.5 secs

     total energy              =      -4.61595439 Ry
     Harris-Foulkes estimate   =      -4.72116982 Ry
     estimated scf accuracy    <       0.00017929 Ry

     iteration #  2     ecut=    80.00 Ry     beta= 0.40
     Davidson diagonalization with overlap
     ethr =  5.98E-06,  avg # of iterations =  5.0

     negative rho (up, down):  2.576E-07 0.000E+00

     total cpu time spent up to now is       47.7 secs

     total energy              =      -4.61619814 Ry
     Harris-Foulkes estimate   =      -4.61620227 Ry
     estimated scf accuracy    <       0.00001713 Ry

     iteration #  3     ecut=    80.00 Ry     beta= 0.40
     Davidson diagonalization with overlap
     ethr =  5.71E-07,  avg # of iterations =  1.0

     negative rho (up, down):  2.827E-08 0.000E+00

     total cpu time spent up to now is       47.8 secs

     total energy              =      -4.61619575 Ry
     Harris-Foulkes estimate   =      -4.61619855 Ry
     estimated scf accuracy    <       0.00000676 Ry

     iteration #  4     ecut=    80.00 Ry     beta= 0.40
     Davidson diagonalization with overlap
     ethr =  2.25E-07,  avg # of iterations =  2.0

     total cpu time spent up to now is       47.9 secs

     total energy              =      -4.61619681 Ry
     Harris-Foulkes estimate   =      -4.61619743 Ry
     estimated scf accuracy    <       0.00000187 Ry

     iteration #  5     ecut=    80.00 Ry     beta= 0.40
     Davidson diagonalization with overlap
     ethr =  6.24E-08,  avg # of iterations =  1.0

     total cpu time spent up to now is       48.0 secs

     total energy              =      -4.61619660 Ry
     Harris-Foulkes estimate   =      -4.61619685 Ry
     estimated scf accuracy    <       0.00000054 Ry

     iteration #  6     ecut=    80.00 Ry     beta= 0.40
     Davidson diagonalization with overlap
     ethr =  1.81E-08,  avg # of iterations =  1.0

     total cpu time spent up to now is       48.1 secs

     total energy              =      -4.61619662 Ry
     Harris-Foulkes estimate   =      -4.61619664 Ry
     estimated scf accuracy    <       0.00000002 Ry

     iteration #  7     ecut=    80.00 Ry     beta= 0.40
     Davidson diagonalization with overlap
     ethr =  6.76E-10,  avg # of iterations =  2.0

     total cpu time spent up to now is       48.2 secs

     End of self-consistent calculation

          k = 0.0000 0.0000 0.0000 ( 27893 PWs)   bands (ev):

    -9.6903  -4.1041  -0.3711  -0.3711  -0.1234   0.8259

     the Fermi energy is    -4.1041 ev

!    total energy              =      -4.61619662 Ry
     Harris-Foulkes estimate   =      -4.61619662 Ry
     estimated scf accuracy    <          8.9E-10 Ry

     The total energy is the sum of the following terms:

     one-electron contribution =      -9.60734038 Ry
     hartree contribution      =       4.72754103 Ry
     xc contribution           =      -1.71222282 Ry
     ewald contribution        =       1.98993029 Ry
     smearing contrib. (-TS)   =      -0.01410474 Ry

     convergence has been achieved in   7 iterations

     Forces acting on atoms (cartesian axes, Ry/au):

     atom    1 type  1   force =     0.00000000    0.00000000    0.00000000

     Total force =     0.000000     Total SCF correction =     0.000000


     Computing stress (Cartesian axis) and pressure

          total   stress  (Ry/bohr**3)                   (kbar)     P=  -26.87
  -0.00027402  -0.00000000   0.00000000        -40.31     -0.00      0.00
  -0.00000000  -0.00027402   0.00000000         -0.00    -40.31      0.00
   0.00000000   0.00000000   0.00000002          0.00      0.00      0.00


     number of scf cycles    =  11
     number of bfgs steps    =  10

     enthalpy old            =      -4.6091381180 Ry
     enthalpy new            =      -4.6161966236 Ry

     CASE: enthalpy_new < enthalpy_old


     WARNING: bfgs curvature condition failed, Theta= 0.781
     new trust radius        =       0.0649452060 bohr
     new conv_thr            =       0.0000000100 Ry

     new unit-cell volume =   1921.88032 a.u.^3 (   284.79328 Ang^3 )
     density =      0.17482 g/cm^3

CELL_PARAMETERS (alat=  8.42024170)
   0.910036180  -0.000000000   0.000000000
  -0.455018090   0.788115192   0.000000000
   0.000000000   0.000000000   4.488531801

ATOMIC_POSITIONS (angstrom)
Al       0.000000533   2.341150241   0.000000000



     Writing output data file 2al_planar_1x1_vcr.save/
     NEW-OLD atomic charge density approx. for the potential

     negative rho (up, down):  7.383E-07 0.000E+00
     extrapolated charge    2.95543, renormalised to    3.00000

     total cpu time spent up to now is       51.9 secs

     Self-consistent Calculation

     iteration #  1     ecut=    80.00 Ry     beta= 0.40
     Davidson diagonalization with overlap
     ethr =  1.00E-06,  avg # of iterations =  5.0

     negative rho (up, down):  4.260E-07 0.000E+00

     total cpu time spent up to now is       52.0 secs

     total energy              =      -4.62386266 Ry
     Harris-Foulkes estimate   =      -4.74238872 Ry
     estimated scf accuracy    <       0.00022343 Ry

     iteration #  2     ecut=    80.00 Ry     beta= 0.40
     Davidson diagonalization with overlap
     ethr =  7.45E-06,  avg # of iterations =  5.0

     negative rho (up, down):  2.578E-07 0.000E+00

     total cpu time spent up to now is       52.2 secs

     total energy              =      -4.62416364 Ry
     Harris-Foulkes estimate   =      -4.62416853 Ry
     estimated scf accuracy    <       0.00002026 Ry

     iteration #  3     ecut=    80.00 Ry     beta= 0.40
     Davidson diagonalization with overlap
     ethr =  6.75E-07,  avg # of iterations =  1.0

     negative rho (up, down):  2.653E-08 0.000E+00

     total cpu time spent up to now is       52.3 secs

     total energy              =      -4.62416081 Ry
     Harris-Foulkes estimate   =      -4.62416412 Ry
     estimated scf accuracy    <       0.00000793 Ry

     iteration #  4     ecut=    80.00 Ry     beta= 0.40
     Davidson diagonalization with overlap
     ethr =  2.64E-07,  avg # of iterations =  2.0

     total cpu time spent up to now is       52.4 secs

     total energy              =      -4.62416206 Ry
     Harris-Foulkes estimate   =      -4.62416274 Ry
     estimated scf accuracy    <       0.00000208 Ry

     iteration #  5     ecut=    80.00 Ry     beta= 0.40
     Davidson diagonalization with overlap
     ethr =  6.94E-08,  avg # of iterations =  1.0

     total cpu time spent up to now is       52.5 secs

     total energy              =      -4.62416180 Ry
     Harris-Foulkes estimate   =      -4.62416211 Ry
     estimated scf accuracy    <       0.00000065 Ry

     iteration #  6     ecut=    80.00 Ry     beta= 0.40
     Davidson diagonalization with overlap
     ethr =  2.16E-08,  avg # of iterations =  1.0

     total cpu time spent up to now is       52.6 secs

     total energy              =      -4.62416184 Ry
     Harris-Foulkes estimate   =      -4.62416185 Ry
     estimated scf accuracy    <       0.00000002 Ry

     iteration #  7     ecut=    80.00 Ry     beta= 0.40
     Davidson diagonalization with overlap
     ethr =  5.83E-10,  avg # of iterations =  2.0

     total cpu time spent up to now is       52.7 secs

     End of self-consistent calculation

          k = 0.0000 0.0000 0.0000 ( 27893 PWs)   bands (ev):

    -9.7333  -4.1283  -0.2751  -0.2751  -0.1215   0.8381

     the Fermi energy is    -4.1283 ev

!    total energy              =      -4.62416185 Ry
     Harris-Foulkes estimate   =      -4.62416184 Ry
     estimated scf accuracy    <          8.7E-10 Ry

     The total energy is the sum of the following terms:

     one-electron contribution =      -9.74676364 Ry
     hartree contribution      =       4.79451479 Ry
     xc contribution           =      -1.71398355 Ry
     ewald contribution        =       2.05617530 Ry
     smearing contrib. (-TS)   =      -0.01410474 Ry

     convergence has been achieved in   7 iterations

     Forces acting on atoms (cartesian axes, Ry/au):

     atom    1 type  1   force =     0.00000000    0.00000000    0.00000000

     Total force =     0.000000     Total SCF correction =     0.000000


     Computing stress (Cartesian axis) and pressure

          total   stress  (Ry/bohr**3)                   (kbar)     P=  -27.80
  -0.00028349  -0.00000000  -0.00000000        -41.70     -0.00     -0.00
  -0.00000000  -0.00028349  -0.00000000         -0.00    -41.70     -0.00
  -0.00000000  -0.00000000   0.00000002         -0.00     -0.00      0.00


     number of scf cycles    =  12
     number of bfgs steps    =  11

     enthalpy old            =      -4.6161966236 Ry
     enthalpy new            =      -4.6241618452 Ry

     CASE: enthalpy_new < enthalpy_old


     WARNING: bfgs curvature condition failed, Theta= 0.392
     new trust radius        =       0.0974178094 bohr
     new conv_thr            =       0.0000000100 Ry

     new unit-cell volume =   1879.41035 a.u.^3 (   278.49988 Ang^3 )
     density =      0.17877 g/cm^3

CELL_PARAMETERS (alat=  8.42024170)
   0.899924953  -0.000000000   0.000000000
  -0.449962477   0.779358612   0.000000000
   0.000000000   0.000000000   4.488531801

ATOMIC_POSITIONS (angstrom)
Al       0.000000527   2.315138219   0.000000000



     Writing output data file 2al_planar_1x1_vcr.save/
     NEW-OLD atomic charge density approx. for the potential

     negative rho (up, down):  1.215E-06 0.000E+00
     extrapolated charge    2.93226, renormalised to    3.00000

     total cpu time spent up to now is       56.4 secs

     Self-consistent Calculation

     iteration #  1     ecut=    80.00 Ry     beta= 0.40
     Davidson diagonalization with overlap
     ethr =  1.00E-06,  avg # of iterations =  4.0

     negative rho (up, down):  7.157E-07 0.000E+00

     total cpu time spent up to now is       56.6 secs

     total energy              =      -4.63583353 Ry
     Harris-Foulkes estimate   =      -4.82008495 Ry
     estimated scf accuracy    <       0.00051484 Ry

     iteration #  2     ecut=    80.00 Ry     beta= 0.40
     Davidson diagonalization with overlap
     ethr =  1.72E-05,  avg # of iterations =  4.0

     negative rho (up, down):  4.299E-07 0.000E+00

     total cpu time spent up to now is       56.7 secs

     total energy              =      -4.63651406 Ry
     Harris-Foulkes estimate   =      -4.63652458 Ry
     estimated scf accuracy    <       0.00004249 Ry

     iteration #  3     ecut=    80.00 Ry     beta= 0.40
     Davidson diagonalization with overlap
     ethr =  1.42E-06,  avg # of iterations =  4.0

     negative rho (up, down):  4.508E-08 0.000E+00

     total cpu time spent up to now is       56.8 secs

     total energy              =      -4.63650831 Ry
     Harris-Foulkes estimate   =      -4.63651503 Ry
     estimated scf accuracy    <       0.00001629 Ry

     iteration #  4     ecut=    80.00 Ry     beta= 0.40
     Davidson diagonalization with overlap
     ethr =  5.43E-07,  avg # of iterations =  2.0

     total cpu time spent up to now is       56.9 secs

     total energy              =      -4.63651090 Ry
     Harris-Foulkes estimate   =      -4.63651217 Ry
     estimated scf accuracy    <       0.00000397 Ry

     iteration #  5     ecut=    80.00 Ry     beta= 0.40
     Davidson diagonalization with overlap
     ethr =  1.32E-07,  avg # of iterations =  1.0

     total cpu time spent up to now is       57.0 secs

     total energy              =      -4.63651043 Ry
     Harris-Foulkes estimate   =      -4.63651100 Ry
     estimated scf accuracy    <       0.00000118 Ry

     iteration #  6     ecut=    80.00 Ry     beta= 0.40
     Davidson diagonalization with overlap
     ethr =  3.94E-08,  avg # of iterations =  2.0

     total cpu time spent up to now is       57.1 secs

     End of self-consistent calculation

          k = 0.0000 0.0000 0.0000 ( 27893 PWs)   bands (ev):

    -9.8003  -4.1656  -0.1249  -0.1249  -0.1193   0.8564

     the Fermi energy is    -4.1656 ev

!    total energy              =      -4.63651055 Ry
     Harris-Foulkes estimate   =      -4.63651056 Ry
     estimated scf accuracy    <          8.7E-09 Ry

     The total energy is the sum of the following terms:

     one-electron contribution =      -9.96292673 Ry
     hartree contribution      =       4.89858089 Ry
     xc contribution           =      -1.71692655 Ry
     ewald contribution        =       2.15886658 Ry
     smearing contrib. (-TS)   =      -0.01410474 Ry

     convergence has been achieved in   6 iterations

     Forces acting on atoms (cartesian axes, Ry/au):

     atom    1 type  1   force =     0.00000000    0.00000000    0.00000000

     Total force =     0.000000     Total SCF correction =     0.000000


     Computing stress (Cartesian axis) and pressure

          total   stress  (Ry/bohr**3)                   (kbar)     P=  -29.24
  -0.00029813  -0.00000000   0.00000000        -43.86     -0.00      0.00
  -0.00000000  -0.00029813   0.00000000         -0.00    -43.86      0.00
   0.00000000   0.00000000   0.00000005          0.00      0.00      0.01


     number of scf cycles    =  13
     number of bfgs steps    =  12

     enthalpy old            =      -4.6241618452 Ry
     enthalpy new            =      -4.6365105506 Ry

     CASE: enthalpy_new < enthalpy_old


     WARNING: bfgs curvature condition failed, Theta= 0.538
     uphill step: resetting bfgs history

     new trust radius        =       0.0646239494 bohr
     new conv_thr            =       0.0000000100 Ry

     new unit-cell volume =   1851.49888 a.u.^3 (   274.36382 Ang^3 )
     density =      0.18146 g/cm^3

CELL_PARAMETERS (alat=  8.42024170)
   0.893217479  -0.000000000   0.000000000
  -0.446608740   0.773549768   0.000000000
   0.000000000   0.000000000   4.488531801

ATOMIC_POSITIONS (angstrom)
Al       0.000000523   2.297882649   0.000000000



     Writing output data file 2al_planar_1x1_vcr.save/
     NEW-OLD atomic charge density approx. for the potential

     negative rho (up, down):  8.111E-07 0.000E+00
     extrapolated charge    2.95481, renormalised to    3.00000

     total cpu time spent up to now is       60.9 secs

     Self-consistent Calculation

     iteration #  1     ecut=    80.00 Ry     beta= 0.40
     Davidson diagonalization with overlap
     ethr =  1.00E-06,  avg # of iterations =  4.0

     negative rho (up, down):  4.695E-07 0.000E+00

     total cpu time spent up to now is       61.0 secs

     total energy              =      -4.64465564 Ry
     Harris-Foulkes estimate   =      -4.76996345 Ry
     estimated scf accuracy    <       0.00023734 Ry

     iteration #  2     ecut=    80.00 Ry     beta= 0.40
     Davidson diagonalization with overlap
     ethr =  7.91E-06,  avg # of iterations =  5.0

     negative rho (up, down):  2.849E-07 0.000E+00

     total cpu time spent up to now is       61.1 secs

     total energy              =      -4.64497338 Ry
     Harris-Foulkes estimate   =      -4.64497820 Ry
     estimated scf accuracy    <       0.00001984 Ry

     iteration #  3     ecut=    80.00 Ry     beta= 0.40
     Davidson diagonalization with overlap
     ethr =  6.61E-07,  avg # of iterations =  1.0

     negative rho (up, down):  4.017E-08 0.000E+00

     total cpu time spent up to now is       61.2 secs

     total energy              =      -4.64497072 Ry
     Harris-Foulkes estimate   =      -4.64497385 Ry
     estimated scf accuracy    <       0.00000769 Ry

     iteration #  4     ecut=    80.00 Ry     beta= 0.40
     Davidson diagonalization with overlap
     ethr =  2.56E-07,  avg # of iterations =  2.0

     negative rho (up, down):  1.027E-08 0.000E+00

     total cpu time spent up to now is       61.3 secs

     total energy              =      -4.64497199 Ry
     Harris-Foulkes estimate   =      -4.64497271 Ry
     estimated scf accuracy    <       0.00000240 Ry

     iteration #  5     ecut=    80.00 Ry     beta= 0.40
     Davidson diagonalization with overlap
     ethr =  8.00E-08,  avg # of iterations =  1.0

     total cpu time spent up to now is       61.4 secs

     total energy              =      -4.64497168 Ry
     Harris-Foulkes estimate   =      -4.64497204 Ry
     estimated scf accuracy    <       0.00000079 Ry

     iteration #  6     ecut=    80.00 Ry     beta= 0.40
     Davidson diagonalization with overlap
     ethr =  2.63E-08,  avg # of iterations =  1.0

     total cpu time spent up to now is       61.5 secs

     total energy              =      -4.64497173 Ry
     Harris-Foulkes estimate   =      -4.64497175 Ry
     estimated scf accuracy    <       0.00000003 Ry

     iteration #  7     ecut=    80.00 Ry     beta= 0.40
     Davidson diagonalization with overlap
     ethr =  8.34E-10,  avg # of iterations =  2.0

     total cpu time spent up to now is       61.6 secs

     End of self-consistent calculation

          k = 0.0000 0.0000 0.0000 ( 27893 PWs)   bands (ev):

    -9.8444  -4.1895  -0.1178  -0.0187  -0.0187   0.8688

     the Fermi energy is    -4.1895 ev

!    total energy              =      -4.64497174 Ry
     Harris-Foulkes estimate   =      -4.64497174 Ry
     estimated scf accuracy    <          6.1E-10 Ry

     The total energy is the sum of the following terms:

     one-electron contribution =     -10.11102497 Ry
     hartree contribution      =       4.96991985 Ry
     xc contribution           =      -1.71903496 Ry
     ewald contribution        =       2.22927308 Ry
     smearing contrib. (-TS)   =      -0.01410474 Ry

     convergence has been achieved in   7 iterations

     Forces acting on atoms (cartesian axes, Ry/au):

     atom    1 type  1   force =     0.00000000    0.00000000    0.00000000

     Total force =     0.000000     Total SCF correction =     0.000000


     Computing stress (Cartesian axis) and pressure

          total   stress  (Ry/bohr**3)                   (kbar)     P=  -30.22
  -0.00030818  -0.00000000   0.00000000        -45.34     -0.00      0.00
  -0.00000000  -0.00030818   0.00000000         -0.00    -45.34      0.00
   0.00000000   0.00000000   0.00000002          0.00      0.00      0.00


     number of scf cycles    =  14
     number of bfgs steps    =  13

     enthalpy old            =      -4.6365105506 Ry
     enthalpy new            =      -4.6449717376 Ry

     CASE: enthalpy_new < enthalpy_old


     WARNING: bfgs curvature condition failed, Theta= 0.780
     new trust radius        =       0.0710863446 bohr
     new conv_thr            =       0.0000000100 Ry

     new unit-cell volume =   1821.03745 a.u.^3 (   269.84991 Ang^3 )
     density =      0.18450 g/cm^3

CELL_PARAMETERS (alat=  8.42024170)
   0.885839258  -0.000000000   0.000000000
  -0.442919629   0.767160039   0.000000000
   0.000000000   0.000000000   4.488531801

ATOMIC_POSITIONS (angstrom)
Al       0.000000519   2.278901523   0.000000000



     Writing output data file 2al_planar_1x1_vcr.save/
     NEW-OLD atomic charge density approx. for the potential

     negative rho (up, down):  9.709E-07 0.000E+00
     extrapolated charge    2.94986, renormalised to    3.00000

     total cpu time spent up to now is       65.3 secs

     Self-consistent Calculation

     iteration #  1     ecut=    80.00 Ry     beta= 0.40
     Davidson diagonalization with overlap
     ethr =  1.00E-06,  avg # of iterations =  5.0

     negative rho (up, down):  5.655E-07 0.000E+00

     total cpu time spent up to now is       65.5 secs

     total energy              =      -4.65413902 Ry
     Harris-Foulkes estimate   =      -4.79573951 Ry
     estimated scf accuracy    <       0.00029718 Ry

     iteration #  2     ecut=    80.00 Ry     beta= 0.40
     Davidson diagonalization with overlap
     ethr =  9.91E-06,  avg # of iterations =  5.0

     negative rho (up, down):  3.407E-07 0.000E+00

     total cpu time spent up to now is       65.6 secs

     total energy              =      -4.65453274 Ry
     Harris-Foulkes estimate   =      -4.65453851 Ry
     estimated scf accuracy    <       0.00002354 Ry

     iteration #  3     ecut=    80.00 Ry     beta= 0.40
     Davidson diagonalization with overlap
     ethr =  7.85E-07,  avg # of iterations =  1.0

     negative rho (up, down):  4.604E-08 0.000E+00

     total cpu time spent up to now is       65.7 secs

     total energy              =      -4.65452968 Ry
     Harris-Foulkes estimate   =      -4.65453330 Ry
     estimated scf accuracy    <       0.00000903 Ry

     iteration #  4     ecut=    80.00 Ry     beta= 0.40
     Davidson diagonalization with overlap
     ethr =  3.01E-07,  avg # of iterations =  2.0

     negative rho (up, down):  1.360E-08 0.000E+00

     total cpu time spent up to now is       65.8 secs

     total energy              =      -4.65453120 Ry
     Harris-Foulkes estimate   =      -4.65453197 Ry
     estimated scf accuracy    <       0.00000266 Ry

     iteration #  5     ecut=    80.00 Ry     beta= 0.40
     Davidson diagonalization with overlap
     ethr =  8.86E-08,  avg # of iterations =  1.0

     total cpu time spent up to now is       65.9 secs

     total energy              =      -4.65453082 Ry
     Harris-Foulkes estimate   =      -4.65453126 Ry
     estimated scf accuracy    <       0.00000094 Ry

     iteration #  6     ecut=    80.00 Ry     beta= 0.40
     Davidson diagonalization with overlap
     ethr =  3.12E-08,  avg # of iterations =  1.0

     total cpu time spent up to now is       66.0 secs

     total energy              =      -4.65453089 Ry
     Harris-Foulkes estimate   =      -4.65453090 Ry
     estimated scf accuracy    <       0.00000002 Ry

     iteration #  7     ecut=    80.00 Ry     beta= 0.40
     Davidson diagonalization with overlap
     ethr =  7.38E-10,  avg # of iterations =  2.0

     total cpu time spent up to now is       66.1 secs

     End of self-consistent calculation

          k = 0.0000 0.0000 0.0000 ( 27893 PWs)   bands (ev):

    -9.8949  -4.2169  -0.1166   0.1018   0.1018   0.8825

     the Fermi energy is    -4.2169 ev

!    total energy              =      -4.65453089 Ry
     Harris-Foulkes estimate   =      -4.65453089 Ry
     estimated scf accuracy    <          5.2E-10 Ry

     The total energy is the sum of the following terms:

     one-electron contribution =     -10.27855766 Ry
     hartree contribution      =       5.05078655 Ry
     xc contribution           =      -1.72156258 Ry
     ewald contribution        =       2.30890753 Ry
     smearing contrib. (-TS)   =      -0.01410474 Ry

     convergence has been achieved in   7 iterations

     Forces acting on atoms (cartesian axes, Ry/au):

     atom    1 type  1   force =     0.00000000    0.00000000    0.00000000

     Total force =     0.000000     Total SCF correction =     0.000000


     Computing stress (Cartesian axis) and pressure

          total   stress  (Ry/bohr**3)                   (kbar)     P=  -31.33
  -0.00031949  -0.00000000   0.00000000        -47.00     -0.00      0.00
  -0.00000000  -0.00031949   0.00000000         -0.00    -47.00      0.00
   0.00000000   0.00000000   0.00000003          0.00      0.00      0.00


     number of scf cycles    =  15
     number of bfgs steps    =  14

     enthalpy old            =      -4.6449717376 Ry
     enthalpy new            =      -4.6545308918 Ry

     CASE: enthalpy_new < enthalpy_old


     WARNING: bfgs curvature condition failed, Theta= 0.405
     new trust radius        =       0.1066295172 bohr
     new conv_thr            =       0.0000000100 Ry

     new unit-cell volume =   1775.81904 a.u.^3 (   263.14923 Ang^3 )
     density =      0.18919 g/cm^3

CELL_PARAMETERS (alat=  8.42024170)
   0.874771926  -0.000000000   0.000000000
  -0.437385963   0.757575447   0.000000000
   0.000000000   0.000000000   4.488531801

ATOMIC_POSITIONS (angstrom)
Al       0.000000513   2.250429834   0.000000000



     Writing output data file 2al_planar_1x1_vcr.save/
     NEW-OLD atomic charge density approx. for the potential

     negative rho (up, down):  1.439E-06 0.000E+00
     extrapolated charge    2.92367, renormalised to    3.00000

     total cpu time spent up to now is       69.9 secs

     Self-consistent Calculation

     iteration #  1     ecut=    80.00 Ry     beta= 0.40
     Davidson diagonalization with overlap
     ethr =  1.00E-06,  avg # of iterations =  4.0

     negative rho (up, down):  8.550E-07 0.000E+00

     total cpu time spent up to now is       70.1 secs

     total energy              =      -4.66848184 Ry
     Harris-Foulkes estimate   =      -4.88963470 Ry
     estimated scf accuracy    <       0.00068798 Ry

     iteration #  2     ecut=    80.00 Ry     beta= 0.40
     Davidson diagonalization with overlap
     ethr =  2.29E-05,  avg # of iterations =  5.0

     negative rho (up, down):  5.118E-07 0.000E+00

     total cpu time spent up to now is       70.2 secs

     total energy              =      -4.66937503 Ry
     Harris-Foulkes estimate   =      -4.66938740 Ry
     estimated scf accuracy    <       0.00004944 Ry

     iteration #  3     ecut=    80.00 Ry     beta= 0.40
     Davidson diagonalization with overlap
     ethr =  1.65E-06,  avg # of iterations =  4.0

     negative rho (up, down):  7.674E-08 0.000E+00

     total cpu time spent up to now is       70.3 secs

     total energy              =      -4.66936874 Ry
     Harris-Foulkes estimate   =      -4.66937616 Ry
     estimated scf accuracy    <       0.00001855 Ry

     iteration #  4     ecut=    80.00 Ry     beta= 0.40
     Davidson diagonalization with overlap
     ethr =  6.18E-07,  avg # of iterations =  2.0

     negative rho (up, down):  2.417E-08 0.000E+00

     total cpu time spent up to now is       70.4 secs

     total energy              =      -4.66937185 Ry
     Harris-Foulkes estimate   =      -4.66937343 Ry
     estimated scf accuracy    <       0.00000541 Ry

     iteration #  5     ecut=    80.00 Ry     beta= 0.40
     Davidson diagonalization with overlap
     ethr =  1.80E-07,  avg # of iterations =  1.0

     total cpu time spent up to now is       70.5 secs

     total energy              =      -4.66937104 Ry
     Harris-Foulkes estimate   =      -4.66937196 Ry
     estimated scf accuracy    <       0.00000189 Ry

     iteration #  6     ecut=    80.00 Ry     beta= 0.40
     Davidson diagonalization with overlap
     ethr =  6.31E-08,  avg # of iterations =  1.0

     total cpu time spent up to now is       70.6 secs

     total energy              =      -4.66937121 Ry
     Harris-Foulkes estimate   =      -4.66937122 Ry
     estimated scf accuracy    <       0.00000002 Ry

     iteration #  7     ecut=    80.00 Ry     beta= 0.40
     Davidson diagonalization with overlap
     ethr =  7.55E-10,  avg # of iterations =  3.0

     total cpu time spent up to now is       70.7 secs

     End of self-consistent calculation

          k = 0.0000 0.0000 0.0000 ( 27893 PWs)   bands (ev):

    -9.9727  -4.2584  -0.1152   0.2924   0.2924   0.9033

     the Fermi energy is    -4.2584 ev

!    total energy              =      -4.66937122 Ry
     Harris-Foulkes estimate   =      -4.66937122 Ry
     estimated scf accuracy    <          1.2E-09 Ry

     The total energy is the sum of the following terms:

     one-electron contribution =     -10.53917776 Ry
     hartree contribution      =       5.17679349 Ry
     xc contribution           =      -1.72571612 Ry
     ewald contribution        =       2.43283390 Ry
     smearing contrib. (-TS)   =      -0.01410474 Ry

     convergence has been achieved in   7 iterations

     Forces acting on atoms (cartesian axes, Ry/au):

     atom    1 type  1   force =     0.00000000    0.00000000    0.00000000

     Total force =     0.000000     Total SCF correction =     0.000000


     Computing stress (Cartesian axis) and pressure

          total   stress  (Ry/bohr**3)                   (kbar)     P=  -33.05
  -0.00033703  -0.00000000  -0.00000000        -49.58     -0.00     -0.00
  -0.00000000  -0.00033703  -0.00000000         -0.00    -49.58     -0.00
  -0.00000000  -0.00000000   0.00000002         -0.00     -0.00      0.00


     number of scf cycles    =  16
     number of bfgs steps    =  15

     enthalpy old            =      -4.6545308918 Ry
     enthalpy new            =      -4.6693712174 Ry

     CASE: enthalpy_new < enthalpy_old


     WARNING: bfgs curvature condition failed, Theta= 0.563
     uphill step: resetting bfgs history

     new trust radius        =       0.0710138506 bohr
     new conv_thr            =       0.0000000100 Ry

[...]
     enthalpy new            =      -5.1300988338 Ry

     CASE: enthalpy_new < enthalpy_old


     WARNING: bfgs curvature condition failed, Theta= 0.796
     new trust radius        =       0.2516962807 bohr
     new conv_thr            =       0.0000000100 Ry

     new unit-cell volume =    865.66235 a.u.^3 (   128.27792 Ang^3 )
     density =      0.38811 g/cm^3

CELL_PARAMETERS (alat=  8.42024170)
   0.610758727  -0.000000000   0.000000000
  -0.305379363   0.528933248   0.000000000
   0.000000000   0.000000000   4.488531801

ATOMIC_POSITIONS (angstrom)
Al       0.000000358   1.571232496   0.000000000



     Writing output data file 2al_planar_1x1_vcr.save/
     NEW-OLD atomic charge density approx. for the potential

     negative rho (up, down):  2.148E-06 0.000E+00
     extrapolated charge    2.73809, renormalised to    3.00000

     total cpu time spent up to now is      162.4 secs

     Self-consistent Calculation

     iteration #  1     ecut=    80.00 Ry     beta= 0.40
     Davidson diagonalization with overlap
     ethr =  1.00E-06,  avg # of iterations =  6.0

     negative rho (up, down):  1.412E-06 0.000E+00

     total cpu time spent up to now is      162.5 secs

     total energy              =      -5.17213186 Ry
     Harris-Foulkes estimate   =      -6.87268380 Ry
     estimated scf accuracy    <       0.01459175 Ry

     iteration #  2     ecut=    80.00 Ry     beta= 0.40
     Davidson diagonalization with overlap
     ethr =  4.86E-04,  avg # of iterations =  8.0

     negative rho (up, down):  9.000E-07 0.000E+00

     total cpu time spent up to now is      162.6 secs

     total energy              =      -5.19051792 Ry
     Harris-Foulkes estimate   =      -5.19103570 Ry
     estimated scf accuracy    <       0.00157842 Ry

     iteration #  3     ecut=    80.00 Ry     beta= 0.40
     Davidson diagonalization with overlap
     ethr =  5.26E-05,  avg # of iterations =  1.0

     negative rho (up, down):  1.486E-08 0.000E+00

     total cpu time spent up to now is      162.7 secs

     total energy              =      -5.19026434 Ry
     Harris-Foulkes estimate   =      -5.19056658 Ry
     estimated scf accuracy    <       0.00049337 Ry

     iteration #  4     ecut=    80.00 Ry     beta= 0.40
     Davidson diagonalization with overlap
     ethr =  1.64E-05,  avg # of iterations =  3.0

     negative rho (up, down):  2.113E-08 0.000E+00

     total cpu time spent up to now is      162.8 secs

     total energy              =      -5.19036140 Ry
     Harris-Foulkes estimate   =      -5.19040022 Ry
     estimated scf accuracy    <       0.00005812 Ry

     iteration #  5     ecut=    80.00 Ry     beta= 0.40
     Davidson diagonalization with overlap
     ethr =  1.94E-06,  avg # of iterations =  2.0

     total cpu time spent up to now is      162.9 secs

     total energy              =      -5.19037290 Ry
     Harris-Foulkes estimate   =      -5.19037356 Ry
     estimated scf accuracy    <       0.00000145 Ry

     iteration #  6     ecut=    80.00 Ry     beta= 0.40
     Davidson diagonalization with overlap
     ethr =  4.83E-08,  avg # of iterations =  1.0

     total cpu time spent up to now is      163.0 secs

     total energy              =      -5.19037302 Ry
     Harris-Foulkes estimate   =      -5.19037305 Ry
     estimated scf accuracy    <       0.00000005 Ry

     iteration #  7     ecut=    80.00 Ry     beta= 0.40
     Davidson diagonalization with overlap
     ethr =  1.66E-09,  avg # of iterations =  2.0

     total cpu time spent up to now is      163.1 secs

     End of self-consistent calculation

          k = 0.0000 0.0000 0.0000 ( 27893 PWs)   bands (ev):

   -12.8907  -5.6168  -0.1405   1.5650   1.9684   3.0423

     the Fermi energy is    -5.6168 ev

!    total energy              =      -5.19037303 Ry
     Harris-Foulkes estimate   =      -5.19037303 Ry
     estimated scf accuracy    <          1.7E-09 Ry

     The total energy is the sum of the following terms:

     one-electron contribution =     -22.34827304 Ry
     hartree contribution      =      10.99970901 Ry
     xc contribution           =      -2.00583384 Ry
     ewald contribution        =       8.17812958 Ry
     smearing contrib. (-TS)   =      -0.01410474 Ry

     convergence has been achieved in   7 iterations

     Forces acting on atoms (cartesian axes, Ry/au):

     atom    1 type  1   force =     0.00000000    0.00000000    0.00000000

     Total force =     0.000000     Total SCF correction =     0.000000


     Computing stress (Cartesian axis) and pressure

          total   stress  (Ry/bohr**3)                   (kbar)     P=  -78.77
  -0.00080323  -0.00000000   0.00000000       -118.16     -0.00      0.00
  -0.00000000  -0.00080323   0.00000000         -0.00   -118.16      0.00
   0.00000000   0.00000000   0.00000005          0.00      0.00      0.01


     number of scf cycles    =  36
     number of bfgs steps    =  35

     enthalpy old            =      -5.1300988338 Ry
     enthalpy new            =      -5.1903730327 Ry

     CASE: enthalpy_new < enthalpy_old

     new trust radius        =       0.3775444477 bohr
     new conv_thr            =       0.0000000100 Ry

     new unit-cell volume =    758.14435 a.u.^3 (   112.34540 Ang^3 )
     density =      0.44315 g/cm^3

CELL_PARAMETERS (alat=  8.42024170)
   0.571572494  -0.000000000   0.000000000
  -0.285786247   0.494997038   0.000000000
   0.000000000   0.000000000   4.488531801

ATOMIC_POSITIONS (angstrom)
Al       0.000000335   1.470422657   0.000000000



     Writing output data file 2al_planar_1x1_vcr.save/
     NEW-OLD atomic charge density approx. for the potential

     negative rho (up, down):  2.746E-06 0.000E+00
     extrapolated charge    2.57490, renormalised to    3.00000

     total cpu time spent up to now is      166.9 secs

     Self-consistent Calculation

     iteration #  1     ecut=    80.00 Ry     beta= 0.40
     Davidson diagonalization with overlap
     ethr =  1.00E-06,  avg # of iterations =  6.0

     negative rho (up, down):  1.917E-06 0.000E+00

     total cpu time spent up to now is      167.1 secs

     total energy              =      -5.22984385 Ry
     Harris-Foulkes estimate   =      -8.36973420 Ry
     estimated scf accuracy    <       0.03657443 Ry

     iteration #  2     ecut=    80.00 Ry     beta= 0.40
     Davidson diagonalization with overlap
     ethr =  1.22E-03,  avg # of iterations =  9.0

     negative rho (up, down):  1.091E-06 0.000E+00

     total cpu time spent up to now is      167.2 secs

     total energy              =      -5.27580742 Ry
     Harris-Foulkes estimate   =      -5.27725598 Ry
     estimated scf accuracy    <       0.00433505 Ry

     iteration #  3     ecut=    80.00 Ry     beta= 0.40
     Davidson diagonalization with overlap
     ethr =  1.45E-04,  avg # of iterations =  3.0

     total cpu time spent up to now is      167.3 secs

     total energy              =      -5.27515198 Ry
     Harris-Foulkes estimate   =      -5.27595678 Ry
     estimated scf accuracy    <       0.00127537 Ry

     iteration #  4     ecut=    80.00 Ry     beta= 0.40
     Davidson diagonalization with overlap
     ethr =  4.25E-05,  avg # of iterations =  2.0

     total cpu time spent up to now is      167.4 secs

     total energy              =      -5.27542838 Ry
     Harris-Foulkes estimate   =      -5.27553409 Ry
     estimated scf accuracy    <       0.00019575 Ry

     iteration #  5     ecut=    80.00 Ry     beta= 0.40
     Davidson diagonalization with overlap
     ethr =  6.52E-06,  avg # of iterations =  2.0

     total cpu time spent up to now is      167.5 secs

     total energy              =      -5.27544250 Ry
     Harris-Foulkes estimate   =      -5.27544909 Ry
     estimated scf accuracy    <       0.00001037 Ry

     iteration #  6     ecut=    80.00 Ry     beta= 0.40
     Davidson diagonalization with overlap
     ethr =  3.46E-07,  avg # of iterations =  3.0

     total cpu time spent up to now is      167.6 secs

     total energy              =      -5.27544309 Ry
     Harris-Foulkes estimate   =      -5.27545071 Ry
     estimated scf accuracy    <       0.00001247 Ry

     iteration #  7     ecut=    80.00 Ry     beta= 0.40
     Davidson diagonalization with overlap
     ethr =  3.46E-07,  avg # of iterations =  2.0

     total cpu time spent up to now is      167.7 secs

     total energy              =      -5.27544502 Ry
     Harris-Foulkes estimate   =      -5.27544499 Ry
     estimated scf accuracy    <       0.00000001 Ry

     iteration #  8     ecut=    80.00 Ry     beta= 0.40
     Davidson diagonalization with overlap
     ethr =  4.93E-10,  avg # of iterations =  3.0

     total cpu time spent up to now is      167.8 secs

     total energy              =      -5.27544498 Ry
     Harris-Foulkes estimate   =      -5.27544507 Ry
     estimated scf accuracy    <       0.00000015 Ry

     iteration #  9     ecut=    80.00 Ry     beta= 0.40
     Davidson diagonalization with overlap
     ethr =  4.93E-10,  avg # of iterations =  2.0

     total cpu time spent up to now is      167.9 secs

     End of self-consistent calculation

          k = 0.0000 0.0000 0.0000 ( 27893 PWs)   bands (ev):

   -13.5447  -5.9264  -0.1445   1.7076   2.1216   3.2237

     the Fermi energy is    -5.9264 ev

!    total energy              =      -5.27544500 Ry
     Harris-Foulkes estimate   =      -5.27544500 Ry
     estimated scf accuracy    <          4.7E-10 Ry

     The total energy is the sum of the following terms:

     one-electron contribution =     -25.73798965 Ry
     hartree contribution      =      12.68578642 Ry
     xc contribution           =      -2.08725237 Ry
     ewald contribution        =       9.87811534 Ry
     smearing contrib. (-TS)   =      -0.01410474 Ry

     convergence has been achieved in   9 iterations

     Forces acting on atoms (cartesian axes, Ry/au):

     atom    1 type  1   force =     0.00000000    0.00000000    0.00000000

     Total force =     0.000000     Total SCF correction =     0.000000


     Computing stress (Cartesian axis) and pressure

          total   stress  (Ry/bohr**3)                   (kbar)     P=  -74.67
  -0.00076141  -0.00000000   0.00000000       -112.01     -0.00      0.00
  -0.00000000  -0.00076141   0.00000000         -0.00   -112.01      0.00
   0.00000000   0.00000000  -0.00000000          0.00      0.00     -0.00


     number of scf cycles    =  37
     number of bfgs steps    =  36

     enthalpy old            =      -5.1903730327 Ry
     enthalpy new            =      -5.2754450002 Ry

     CASE: enthalpy_new < enthalpy_old

     new trust radius        =       0.5663167327 bohr
     new conv_thr            =       0.0000000100 Ry

     new unit-cell volume =    610.23037 a.u.^3 (    90.42681 Ang^3 )
     density =      0.55057 g/cm^3

CELL_PARAMETERS (alat=  8.42024170)
   0.512793145  -0.000000000   0.000000000
  -0.256396572   0.444092694   0.000000000
   0.000000000   0.000000000   4.488531801

ATOMIC_POSITIONS (angstrom)
Al       0.000000300   1.319207811   0.000000000



     Writing output data file 2al_planar_1x1_vcr.save/
     NEW-OLD atomic charge density approx. for the potential

     negative rho (up, down):  7.622E-05 0.000E+00
     extrapolated charge    2.27342, renormalised to    3.00000

     total cpu time spent up to now is      171.6 secs

     Self-consistent Calculation

     iteration #  1     ecut=    80.00 Ry     beta= 0.40
     Davidson diagonalization with overlap
     ethr =  1.00E-06,  avg # of iterations = 10.0

     negative rho (up, down):  6.032E-05 0.000E+00

     total cpu time spent up to now is      171.7 secs

     total energy              =      -5.24075483 Ry
     Harris-Foulkes estimate   =     -11.78857546 Ry
     estimated scf accuracy    <       0.09796953 Ry

     iteration #  2     ecut=    80.00 Ry     beta= 0.40
     Davidson diagonalization with overlap
     ethr =  3.27E-03,  avg # of iterations =  7.0

     negative rho (up, down):  9.088E-06 0.000E+00

     total cpu time spent up to now is      171.9 secs

     total energy              =      -5.36767379 Ry
     Harris-Foulkes estimate   =      -5.37278086 Ry
     estimated scf accuracy    <       0.01508684 Ry

     iteration #  3     ecut=    80.00 Ry     beta= 0.40
     Davidson diagonalization with overlap
     ethr =  5.03E-04,  avg # of iterations =  4.0

     total cpu time spent up to now is      172.0 secs

     total energy              =      -5.36551242 Ry
     Harris-Foulkes estimate   =      -5.36826561 Ry
     estimated scf accuracy    <       0.00421433 Ry

     iteration #  4     ecut=    80.00 Ry     beta= 0.40
     Davidson diagonalization with overlap
     ethr =  1.40E-04,  avg # of iterations =  2.0

     total cpu time spent up to now is      172.1 secs

     total energy              =      -5.36654996 Ry
     Harris-Foulkes estimate   =      -5.36687960 Ry
     estimated scf accuracy    <       0.00063360 Ry

     iteration #  5     ecut=    80.00 Ry     beta= 0.40
     Davidson diagonalization with overlap
     ethr =  2.11E-05,  avg # of iterations =  2.0

     total cpu time spent up to now is      172.2 secs

     total energy              =      -5.36658053 Ry
     Harris-Foulkes estimate   =      -5.36661318 Ry
     estimated scf accuracy    <       0.00004690 Ry

     iteration #  6     ecut=    80.00 Ry     beta= 0.40
     Davidson diagonalization with overlap
     ethr =  1.56E-06,  avg # of iterations =  3.0

     total cpu time spent up to now is      172.3 secs

     total energy              =      -5.36658551 Ry
     Harris-Foulkes estimate   =      -5.36661695 Ry
     estimated scf accuracy    <       0.00005287 Ry

     iteration #  7     ecut=    80.00 Ry     beta= 0.40
     Davidson diagonalization with overlap
     ethr =  1.56E-06,  avg # of iterations =  2.0

     total cpu time spent up to now is      172.4 secs

     total energy              =      -5.36659309 Ry
     Harris-Foulkes estimate   =      -5.36659325 Ry
     estimated scf accuracy    <       0.00000042 Ry

     iteration #  8     ecut=    80.00 Ry     beta= 0.40
     Davidson diagonalization with overlap
     ethr =  1.40E-08,  avg # of iterations =  1.0

     total cpu time spent up to now is      172.5 secs

     total energy              =      -5.36659312 Ry
     Harris-Foulkes estimate   =      -5.36659313 Ry
     estimated scf accuracy    <       0.00000010 Ry

     iteration #  9     ecut=    80.00 Ry     beta= 0.40
     Davidson diagonalization with overlap
     ethr =  3.31E-09,  avg # of iterations =  1.0

     total cpu time spent up to now is      172.6 secs

     total energy              =      -5.36659310 Ry
     Harris-Foulkes estimate   =      -5.36659312 Ry
     estimated scf accuracy    <       0.00000007 Ry

     iteration # 10     ecut=    80.00 Ry     beta= 0.40
     Davidson diagonalization with overlap
     ethr =  2.28E-09,  avg # of iterations =  1.0

     total cpu time spent up to now is      172.7 secs

     total energy              =      -5.36659309 Ry
     Harris-Foulkes estimate   =      -5.36659310 Ry
     estimated scf accuracy    <       0.00000002 Ry

     iteration # 11     ecut=    80.00 Ry     beta= 0.40
     Davidson diagonalization with overlap
     ethr =  6.10E-10,  avg # of iterations =  2.0

     total cpu time spent up to now is      172.7 secs

     End of self-consistent calculation

          k = 0.0000 0.0000 0.0000 ( 27893 PWs)   bands (ev):

   -14.6266  -6.4893  -0.1481   1.9712   2.3994   3.3960

     the Fermi energy is    -6.4893 ev

!    total energy              =      -5.36659309 Ry
     Harris-Foulkes estimate   =      -5.36659309 Ry
     estimated scf accuracy    <          6.5E-11 Ry

     The total energy is the sum of the following terms:

     one-electron contribution =     -32.40473648 Ry
     hartree contribution      =      16.01041878 Ry
     xc contribution           =      -2.23732809 Ry
     ewald contribution        =      13.27915744 Ry
     smearing contrib. (-TS)   =      -0.01410474 Ry

     convergence has been achieved in  11 iterations

     Forces acting on atoms (cartesian axes, Ry/au):

     atom    1 type  1   force =     0.00000000    0.00000000    0.00000000

     Total force =     0.000000     Total SCF correction =     0.000000


     Computing stress (Cartesian axis) and pressure

          total   stress  (Ry/bohr**3)                   (kbar)     P=  -36.16
  -0.00036869  -0.00000000   0.00000000        -54.24     -0.00      0.00
  -0.00000000  -0.00036870   0.00000000         -0.00    -54.24      0.00
   0.00000000   0.00000000  -0.00000009          0.00      0.00     -0.01


     number of scf cycles    =  38
     number of bfgs steps    =  37

     enthalpy old            =      -5.2754450002 Ry
     enthalpy new            =      -5.3665930926 Ry

     CASE: enthalpy_new < enthalpy_old

     new trust radius        =       0.4350007492 bohr
     new conv_thr            =       0.0000000100 Ry

     new unit-cell volume =    507.50348 a.u.^3 (    75.20426 Ang^3 )
     density =      0.66201 g/cm^3

CELL_PARAMETERS (alat=  8.42024170)
   0.467643398  -0.000000000   0.000000000
  -0.233821699   0.404991806   0.000000000
   0.000000000   0.000000000   4.488531801

ATOMIC_POSITIONS (angstrom)
Al       0.000000274   1.203055942   0.000000000



     Writing output data file 2al_planar_1x1_vcr.save/
     NEW-OLD atomic charge density approx. for the potential



 %%%%%%%%%%%%%%%%%%%%%%%%%%%%%%%%%%%%%%%%%%%%%%%%%%%%%%%%%%%%%%%%%%%%%%%%%%%%%%
     Error in routine scale_h (1):
     Not enough space allocated for radial FFT: try restarting with a larger cell_factor.
 %%%%%%%%%%%%%%%%%%%%%%%%%%%%%%%%%%%%%%%%%%%%%%%%%%%%%%%%%%%%%%%%%%%%%%%%%%%%%%

     stopping ...


 %%%%%%%%%%%%%%%%%%%%%%%%%%%%%%%%%%%%%%%%%%%%%%%%%%%%%%%%%%%%%%%%%%%%%%%%%%%%%%
     Error in routine scale_h (1):
     Not enough space allocated for radial FFT: try restarting with a larger cell_factor.
 %%%%%%%%%%%%%%%%%%%%%%%%%%%%%%%%%%%%%%%%%%%%%%%%%%%%%%%%%%%%%%%%%%%%%%%%%%%%%%

     stopping ...


 %%%%%%%%%%%%%%%%%%%%%%%%%%%%%%%%%%%%%%%%%%%%%%%%%%%%%%%%%%%%%%%%%%%%%%%%%%%%%%
     Error in routine scale_h (1):
     Not enough space allocated for radial FFT: try restarting with a larger cell_factor.
 %%%%%%%%%%%%%%%%%%%%%%%%%%%%%%%%%%%%%%%%%%%%%%%%%%%%%%%%%%%%%%%%%%%%%%%%%%%%%%

     stopping ...
 %%%%%%%%%%%%%%%%%%%%%%%%%%%%%%%%%%%%%%%%%%%%%%%%%%%%%%%%%%%%%%%%%%%%%%%%%%%%%%
 %%%%%%%%%%%%%%%%%%%%%%%%%%%%%%%%%%%%%%%%%%%%%%%%%%%%%%%%%%%%%%%%%%%%%%%%%%%%%%
     Error in routine scale_h (1):
     Not enough space allocated for radial FFT: try restarting with a larger cell_factor.
 %%%%%%%%%%%%%%%%%%%%%%%%%%%%%%%%%%%%%%%%%%%%%%%%%%%%%%%%%%%%%%%%%%%%%%%%%%%%%%

 %%%%%%%%%%%%%%%%%%%%%%%%%%%%%%%%%%%%%%%%%%%%%%%%%%%%%%%%%%%%%%%%%%%%%%%%%%%%%%
     Error in routine scale_h (1):
 %%%%%%%%%%%%%%%%%%%%%%%%%%%%%%%%%%%%%%%%%%%%%%%%%%%%%%%%%%%%%%%%%%%%%%%%%%%%%%
     Error in routine scale_h (1):
     Not enough space allocated for radial FFT: try restarting with a larger cell_factor.
 %%%%%%%%%%%%%%%%%%%%%%%%%%%%%%%%%%%%%%%%%%%%%%%%%%%%%%%%%%%%%%%%%%%%%%%%%%%%%%

     stopping ...
     stopping ...
     Error in routine scale_h (1):
     Not enough space allocated for radial FFT: try restarting with a larger cell_factor.
     Not enough space allocated for radial FFT: try restarting with a larger cell_factor.
 %%%%%%%%%%%%%%%%%%%%%%%%%%%%%%%%%%%%%%%%%%%%%%%%%%%%%%%%%%%%%%%%%%%%%%%%%%%%%%

     stopping ...

                                                                                      stopping ...
 %%%%%%%%%%%%%%%%%%%%%%%%%%%%%%%%%%%%%%%%%%%%%%%%%%%%%%%%%%%%%%%%%%%%%%%%%%%%%%
     Error in routine scale_h (1):
     Not enough space allocated for radial FFT: try restarting with a larger cell_factor.
 %%%%%%%%%%%%%%%%%%%%%%%%%%%%%%%%%%%%%%%%%%%%%%%%%%%%%%%%%%%%%%%%%%%%%%%%%%%%%%

     stopping ...
