
     Program PWSCF v.6.3MaX starts on 25Nov2020 at 11:24:54 

     This program is part of the open-source Quantum ESPRESSO suite
     for quantum simulation of materials; please cite
         "P. Giannozzi et al., J. Phys.:Condens. Matter 21 395502 (2009);
         "P. Giannozzi et al., J. Phys.:Condens. Matter 29 465901 (2017);
          URL http://www.quantum-espresso.org", 
     in publications or presentations arising from this work. More details at
     http://www.quantum-espresso.org/quote

     Parallel version (MPI), running on     8 processors

     MPI processes distributed on     4 nodes
     R & G space division:  proc/nbgrp/npool/nimage =       8
     Waiting for input...
     Reading input from standard input

     Current dimensions of program PWSCF are:
     Max number of different atomic species (ntypx) = 10
     Max number of k-points (npk) =  40000
     Max angular momentum in pseudopotentials (lmaxx) =  3

     Subspace diagonalization in iterative solution of the eigenvalue problem:
     a serial algorithm will be used

     Message from routine find_sym:
     Not a group! Trying with lower acceptance parameter...
     Message from routine find_sym:
     Symmetry operations form a group
 
     Parallelization info
     --------------------
     sticks:   dense  smooth     PW     G-vecs:    dense   smooth      PW
     Min         778     778    194               112122   112122   13992
     Max         779     779    195               112130   112130   14001
     Sum        6229    6229   1555               896999   896999  111965
 


     bravais-lattice index     =            4
     lattice parameter (alat)  =      16.8405  a.u.
     unit-cell volume          =    9282.5779 (a.u.)^3
     number of atoms/cell      =            7
     number of atomic types    =            1
     number of electrons       =        21.00
     number of Kohn-Sham states=           15
     kinetic-energy cutoff     =      80.0000  Ry
     charge density cutoff     =     320.0000  Ry
     convergence threshold     =      1.0E-06
     mixing beta               =       0.4000
     number of iterations used =            8  plain     mixing
     Exchange-correlation      = PBE ( 1  4  3  4 0 0)
     nstep                     =          300


     celldm(1)=  16.840483  celldm(2)=   0.000000  celldm(3)=   2.244266
     celldm(4)=   0.000000  celldm(5)=   0.000000  celldm(6)=   0.000000

     crystal axes: (cart. coord. in units of alat)
               a(1) = (   1.000000   0.000000   0.000000 )  
               a(2) = (  -0.500000   0.866025   0.000000 )  
               a(3) = (   0.000000   0.000000   2.244266 )  

     reciprocal axes: (cart. coord. in units 2 pi/alat)
               b(1) = (  1.000000  0.577350  0.000000 )  
               b(2) = (  0.000000  1.154701  0.000000 )  
               b(3) = (  0.000000  0.000000  0.445580 )  


     PseudoPot. # 1 for Al read from file:
     ./Al.upf
     MD5 check sum: 4974d48a734c9d7d1eb6780a1419d19d
     Pseudo is Norm-conserving + core correction, Zval =  3.0
     Generated using ONCVPSP code by D. R. Hamann
     Using radial grid of 1876 points,  6 beta functions with: 
                l(1) =   0
                l(2) =   0
                l(3) =   1
                l(4) =   1
                l(5) =   2
                l(6) =   2

     atomic species   valence    mass     pseudopotential
        Al             3.00    29.98200     Al( 1.00)

      2 Sym. Ops. (no inversion) found



   Cartesian axes

     site n.     atom                  positions (alat units)
         1           Al  tau(   1) = (   0.0000001   0.2886786   0.0000000  )
         2           Al  tau(   2) = (   0.2500030   0.1443392   0.0000000  )
         3           Al  tau(   3) = (   0.5000023   0.2886806   0.0000000  )
         4           Al  tau(   4) = (   0.7500053   0.1443413   0.0000000  )
         5           Al  tau(   5) = (  -0.2499995   0.7216943   0.0000000  )
         6           Al  tau(   6) = (   0.0000036   0.5773550   0.0000000  )
         7           Al  tau(   7) = (   0.5000059   0.5773570   0.0000000  )

     number of k points=     1  Methfessel-Paxton smearing, width (Ry)=  0.0500
                       cart. coord. in units 2pi/alat
        k(    1) = (   0.0000000   0.0000000   0.0000000), wk =   2.0000000

     Dense  grid:   896999 G-vectors     FFT dimensions: (  96,  96, 216)

     Estimated max dynamical RAM per process >     127.42 MB

     Estimated total dynamical RAM >    1019.39 MB

     Initial potential from superposition of free atoms

     starting charge   20.98287, renormalised to   21.00000

     negative rho (up, down):  2.280E-05 0.000E+00
     Starting wfcs are   28 randomized atomic wfcs

     total cpu time spent up to now is        5.0 secs

     Self-consistent Calculation

     iteration #  1     ecut=    80.00 Ry     beta= 0.40
     Davidson diagonalization with overlap
     ethr =  1.00E-02,  avg # of iterations =  2.0

     total cpu time spent up to now is        6.2 secs

     total energy              =     -31.66576898 Ry
     Harris-Foulkes estimate   =     -31.75240323 Ry
     estimated scf accuracy    <       0.28996739 Ry

     iteration #  2     ecut=    80.00 Ry     beta= 0.40
     Davidson diagonalization with overlap
     ethr =  1.38E-03,  avg # of iterations =  2.0

     total cpu time spent up to now is        7.0 secs

     total energy              =     -31.66524333 Ry
     Harris-Foulkes estimate   =     -31.68736088 Ry
     estimated scf accuracy    <       0.06450464 Ry

     iteration #  3     ecut=    80.00 Ry     beta= 0.40
     Davidson diagonalization with overlap
     ethr =  3.07E-04,  avg # of iterations =  2.0

     total cpu time spent up to now is        7.8 secs

     total energy              =     -31.67539042 Ry
     Harris-Foulkes estimate   =     -31.67787140 Ry
     estimated scf accuracy    <       0.00971846 Ry

     iteration #  4     ecut=    80.00 Ry     beta= 0.40
     Davidson diagonalization with overlap
     ethr =  4.63E-05,  avg # of iterations =  4.0

     total cpu time spent up to now is        8.7 secs

     total energy              =     -31.67550434 Ry
     Harris-Foulkes estimate   =     -31.67675182 Ry
     estimated scf accuracy    <       0.00275276 Ry

     iteration #  5     ecut=    80.00 Ry     beta= 0.40
     Davidson diagonalization with overlap
     ethr =  1.31E-05,  avg # of iterations =  9.0

     total cpu time spent up to now is        9.9 secs

     total energy              =     -31.67643436 Ry
     Harris-Foulkes estimate   =     -31.67778141 Ry
     estimated scf accuracy    <       0.00544038 Ry

     iteration #  6     ecut=    80.00 Ry     beta= 0.40
     Davidson diagonalization with overlap
     ethr =  1.31E-05,  avg # of iterations =  2.0

     total cpu time spent up to now is       10.7 secs

     total energy              =     -31.67633083 Ry
     Harris-Foulkes estimate   =     -31.67679690 Ry
     estimated scf accuracy    <       0.00099804 Ry

     iteration #  7     ecut=    80.00 Ry     beta= 0.40
     Davidson diagonalization with overlap
     ethr =  4.75E-06,  avg # of iterations =  3.0

     total cpu time spent up to now is       11.7 secs

     total energy              =     -31.67662064 Ry
     Harris-Foulkes estimate   =     -31.67667638 Ry
     estimated scf accuracy    <       0.00016683 Ry

     iteration #  8     ecut=    80.00 Ry     beta= 0.40
     Davidson diagonalization with overlap
     ethr =  7.94E-07,  avg # of iterations =  2.0

     total cpu time spent up to now is       12.6 secs

     total energy              =     -31.67664578 Ry
     Harris-Foulkes estimate   =     -31.67665398 Ry
     estimated scf accuracy    <       0.00002936 Ry

     iteration #  9     ecut=    80.00 Ry     beta= 0.40
     Davidson diagonalization with overlap
     ethr =  1.40E-07,  avg # of iterations =  3.0

     total cpu time spent up to now is       13.5 secs

     total energy              =     -31.67664931 Ry
     Harris-Foulkes estimate   =     -31.67665104 Ry
     estimated scf accuracy    <       0.00000382 Ry

     iteration # 10     ecut=    80.00 Ry     beta= 0.40
     Davidson diagonalization with overlap
     ethr =  1.82E-08,  avg # of iterations =  4.0

     total cpu time spent up to now is       14.6 secs

     total energy              =     -31.67665137 Ry
     Harris-Foulkes estimate   =     -31.67665170 Ry
     estimated scf accuracy    <       0.00000156 Ry

     iteration # 11     ecut=    80.00 Ry     beta= 0.40
     Davidson diagonalization with overlap
     ethr =  7.41E-09,  avg # of iterations =  2.0

     total cpu time spent up to now is       15.3 secs

     End of self-consistent calculation

          k = 0.0000 0.0000 0.0000 (111965 PWs)   bands (ev):

    -9.6457  -8.0773  -8.0771  -7.5206  -6.5559  -6.5559  -4.1826  -3.7993
    -3.2632  -2.8082  -2.8078  -2.2407  -2.2406  -1.7272  -0.8760

     the Fermi energy is    -2.6608 ev

!    total energy              =     -31.67665106 Ry
     Harris-Foulkes estimate   =     -31.67665147 Ry
     estimated scf accuracy    <       0.00000059 Ry

     The total energy is the sum of the following terms:

     one-electron contribution =    -103.79309681 Ry
     hartree contribution      =      53.99050635 Ry
     xc contribution           =     -13.76138573 Ry
     ewald contribution        =      31.90171854 Ry
     smearing contrib. (-TS)   =      -0.01439341 Ry

     convergence has been achieved in  11 iterations

     Forces acting on atoms (cartesian axes, Ry/au):

     atom    1 type  1   force =     0.00233570   -0.00136945    0.00000000
     atom    2 type  1   force =     0.00001619   -0.00000365    0.00000000
     atom    3 type  1   force =    -0.00234409   -0.00136459    0.00000000
     atom    4 type  1   force =    -0.00001571   -0.01076279    0.00000000
     atom    5 type  1   force =    -0.00000972    0.00269370    0.00000000
     atom    6 type  1   force =     0.00930721    0.00542051    0.00000000
     atom    7 type  1   force =    -0.00928957    0.00538626    0.00000000

     Total force =     0.019212     Total SCF correction =     0.000616


     Computing stress (Cartesian axis) and pressure

          total   stress  (Ry/bohr**3)                   (kbar)     P=   -1.44
  -0.00001475   0.00000001   0.00000000         -2.17      0.00      0.00
   0.00000001  -0.00001473   0.00000000          0.00     -2.17      0.00
   0.00000000   0.00000000   0.00000003          0.00      0.00      0.00


     BFGS Geometry Optimization

     number of scf cycles    =   1
     number of bfgs steps    =   0

     enthalpy new            =     -31.6766510628 Ry

     new trust radius        =       0.0107706116 bohr
     new conv_thr            =       0.0000010000 Ry

     new unit-cell volume =   9275.73776 a.u.^3 (  1374.52251 Ang^3 )
     density =      0.25355 g/cm^3

CELL_PARAMETERS (alat= 16.84048341)
   0.999631218   0.000000291   0.000000000
  -0.499815357   0.865706356   0.000000000
   0.000000000   0.000000000   2.244265901

ATOMIC_POSITIONS (angstrom)
Al       0.001236878   2.570916135   0.000000000
Al       2.227114062   1.285818486   0.000000000
Al       4.452937750   2.570938193   0.000000000
Al       6.681274754   1.280146579   0.000000000
Al      -2.227076890   6.430506949   0.000000000
Al       0.004956932   5.146129254   0.000000000
Al       4.449297141   5.146130617   0.000000000



     Writing output data file 7al_planar_2x2_vcr.save/
     NEW-OLD atomic charge density approx. for the potential

     negative rho (up, down):  1.023E-07 0.000E+00
     extrapolated charge   20.98453, renormalised to   21.00000

     total cpu time spent up to now is       29.5 secs

     Self-consistent Calculation

     iteration #  1     ecut=    80.00 Ry     beta= 0.40
     Davidson diagonalization with overlap
     ethr =  1.00E-06,  avg # of iterations =  4.0

     negative rho (up, down):  5.084E-08 0.000E+00

     total cpu time spent up to now is       30.5 secs

     total energy              =     -31.67706844 Ry
     Harris-Foulkes estimate   =     -31.74690738 Ry
     estimated scf accuracy    <       0.00006418 Ry

     iteration #  2     ecut=    80.00 Ry     beta= 0.40
     Davidson diagonalization with overlap
     ethr =  3.06E-07,  avg # of iterations =  5.0

     negative rho (up, down):  3.939E-08 0.000E+00

     total cpu time spent up to now is       31.6 secs

     total energy              =     -31.67710369 Ry
     Harris-Foulkes estimate   =     -31.67713460 Ry
     estimated scf accuracy    <       0.00012977 Ry

     iteration #  3     ecut=    80.00 Ry     beta= 0.40
     Davidson diagonalization with overlap
     ethr =  3.06E-07,  avg # of iterations =  2.0

     negative rho (up, down):  3.708E-08 0.000E+00

     total cpu time spent up to now is       32.3 secs

     total energy              =     -31.67711337 Ry
     Harris-Foulkes estimate   =     -31.67711381 Ry
     estimated scf accuracy    <       0.00001292 Ry

     iteration #  4     ecut=    80.00 Ry     beta= 0.40
     Davidson diagonalization with overlap
     ethr =  6.15E-08,  avg # of iterations =  4.0

     negative rho (up, down):  2.195E-08 0.000E+00

     total cpu time spent up to now is       33.2 secs

     total energy              =     -31.67711219 Ry
     Harris-Foulkes estimate   =     -31.67711363 Ry
     estimated scf accuracy    <       0.00001080 Ry

     iteration #  5     ecut=    80.00 Ry     beta= 0.40
     Davidson diagonalization with overlap
     ethr =  5.14E-08,  avg # of iterations =  1.0

     total cpu time spent up to now is       33.9 secs

     total energy              =     -31.67711132 Ry
     Harris-Foulkes estimate   =     -31.67711260 Ry
     estimated scf accuracy    <       0.00000576 Ry

     iteration #  6     ecut=    80.00 Ry     beta= 0.40
     Davidson diagonalization with overlap
     ethr =  2.74E-08,  avg # of iterations =  1.0

     total cpu time spent up to now is       34.6 secs

     End of self-consistent calculation

          k = 0.0000 0.0000 0.0000 (111965 PWs)   bands (ev):

    -9.6433  -8.0713  -8.0712  -7.5169  -6.5569  -6.5569  -4.1954  -3.7974
    -3.2577  -2.8017  -2.8016  -2.2362  -2.2361  -1.7241  -0.8772

     the Fermi energy is    -2.6549 ev

!    total energy              =     -31.67711122 Ry
     Harris-Foulkes estimate   =     -31.67711192 Ry
     estimated scf accuracy    <       0.00000100 Ry

     The total energy is the sum of the following terms:

     one-electron contribution =    -103.82878430 Ry
     hartree contribution      =      54.00719092 Ry
     xc contribution           =     -13.75950965 Ry
     ewald contribution        =      31.91860202 Ry
     smearing contrib. (-TS)   =      -0.01461021 Ry

     convergence has been achieved in   6 iterations

     Forces acting on atoms (cartesian axes, Ry/au):

     atom    1 type  1   force =     0.00154201   -0.00090884    0.00000000
     atom    2 type  1   force =     0.00000376    0.00000448    0.00000000
     atom    3 type  1   force =    -0.00152680   -0.00089606    0.00000000
     atom    4 type  1   force =    -0.00002029   -0.01033968    0.00000000
     atom    5 type  1   force =    -0.00000829    0.00176081    0.00000000
     atom    6 type  1   force =     0.00895892    0.00520988    0.00000000
     atom    7 type  1   force =    -0.00894931    0.00516941    0.00000000

     Total force =     0.018181     Total SCF correction =     0.000744


     Computing stress (Cartesian axis) and pressure

          total   stress  (Ry/bohr**3)                   (kbar)     P=   -1.49
  -0.00001516   0.00000001   0.00000000         -2.23      0.00      0.00
   0.00000001  -0.00001519   0.00000000          0.00     -2.23      0.00
   0.00000000   0.00000000  -0.00000011          0.00      0.00     -0.02


     number of scf cycles    =   2
     number of bfgs steps    =   1

     enthalpy old            =     -31.6766510628 Ry
     enthalpy new            =     -31.6771112220 Ry

     CASE: enthalpy_new < enthalpy_old


     WARNING: bfgs curvature condition failed, Theta= 0.832
     new trust radius        =       0.0161499657 bohr
     new conv_thr            =       0.0000004602 Ry

     new unit-cell volume =   9265.14509 a.u.^3 (  1372.95283 Ang^3 )
     density =      0.25384 g/cm^3

CELL_PARAMETERS (alat= 16.84048341)
   0.999060293   0.000000724   0.000000000
  -0.499529519   0.865211677   0.000000000
   0.000000000   0.000000000   2.244265901

ATOMIC_POSITIONS (angstrom)
Al       0.002816235   2.568520121   0.000000000
Al       2.225850894   1.285085238   0.000000000
Al       4.448819045   2.568551087   0.000000000
Al       6.677444919   1.270889557   0.000000000
Al      -2.225809434   6.428647258   0.000000000
Al       0.012338446   5.147486290   0.000000000
Al       4.439387243   5.147459493   0.000000000



     Writing output data file 7al_planar_2x2_vcr.save/
     NEW-OLD atomic charge density approx. for the potential

     negative rho (up, down):  1.637E-07 0.000E+00
     extrapolated charge   20.97601, renormalised to   21.00000

     total cpu time spent up to now is       48.3 secs

     Self-consistent Calculation

     iteration #  1     ecut=    80.00 Ry     beta= 0.40
     Davidson diagonalization with overlap
     ethr =  1.00E-06,  avg # of iterations =  4.0

     negative rho (up, down):  8.270E-08 0.000E+00

     total cpu time spent up to now is       49.4 secs

     total energy              =     -31.67763724 Ry
     Harris-Foulkes estimate   =     -31.78605135 Ry
     estimated scf accuracy    <       0.00021210 Ry

     iteration #  2     ecut=    80.00 Ry     beta= 0.40
     Davidson diagonalization with overlap
     ethr =  1.01E-06,  avg # of iterations =  3.0

     negative rho (up, down):  6.400E-08 0.000E+00

     total cpu time spent up to now is       50.4 secs

     total energy              =     -31.67773728 Ry
     Harris-Foulkes estimate   =     -31.67783379 Ry
     estimated scf accuracy    <       0.00039101 Ry

     iteration #  3     ecut=    80.00 Ry     beta= 0.40
     Davidson diagonalization with overlap
     ethr =  1.01E-06,  avg # of iterations =  2.0

     negative rho (up, down):  5.366E-08 0.000E+00

     total cpu time spent up to now is       51.1 secs

     total energy              =     -31.67776826 Ry
     Harris-Foulkes estimate   =     -31.67777079 Ry
     estimated scf accuracy    <       0.00002864 Ry

     iteration #  4     ecut=    80.00 Ry     beta= 0.40
     Davidson diagonalization with overlap
     ethr =  1.36E-07,  avg # of iterations =  2.0

     total cpu time spent up to now is       51.9 secs

     total energy              =     -31.67776311 Ry
     Harris-Foulkes estimate   =     -31.67776915 Ry
     estimated scf accuracy    <       0.00001817 Ry

     iteration #  5     ecut=    80.00 Ry     beta= 0.40
     Davidson diagonalization with overlap
     ethr =  8.65E-08,  avg # of iterations =  3.0

     total cpu time spent up to now is       52.8 secs

     total energy              =     -31.67776763 Ry
     Harris-Foulkes estimate   =     -31.67776767 Ry
     estimated scf accuracy    <       0.00000243 Ry

     iteration #  6     ecut=    80.00 Ry     beta= 0.40
     Davidson diagonalization with overlap
     ethr =  1.16E-08,  avg # of iterations =  4.0

     total cpu time spent up to now is       53.7 secs

     total energy              =     -31.67776747 Ry
     Harris-Foulkes estimate   =     -31.67776782 Ry
     estimated scf accuracy    <       0.00000253 Ry

     iteration #  7     ecut=    80.00 Ry     beta= 0.40
     Davidson diagonalization with overlap
     ethr =  1.16E-08,  avg # of iterations =  1.0

     total cpu time spent up to now is       54.5 secs

     total energy              =     -31.67776681 Ry
     Harris-Foulkes estimate   =     -31.67776752 Ry
     estimated scf accuracy    <       0.00000178 Ry

     iteration #  8     ecut=    80.00 Ry     beta= 0.40
     Davidson diagonalization with overlap
     ethr =  8.47E-09,  avg # of iterations =  3.0

     total cpu time spent up to now is       55.4 secs

     End of self-consistent calculation

          k = 0.0000 0.0000 0.0000 (111965 PWs)   bands (ev):

    -9.6414  -8.0636  -8.0634  -7.5132  -6.5599  -6.5598  -4.2163  -3.7959
    -3.2505  -2.7937  -2.7936  -2.2302  -2.2301  -1.7215  -0.8800

     the Fermi energy is    -2.6473 ev

!    total energy              =     -31.67776700 Ry
     Harris-Foulkes estimate   =     -31.67776722 Ry
     estimated scf accuracy    <       0.00000026 Ry

     The total energy is the sum of the following terms:

     one-electron contribution =    -103.89225129 Ry
     hartree contribution      =      54.04104125 Ry
     xc contribution           =     -13.75792039 Ry
     ewald contribution        =      31.94623916 Ry
     smearing contrib. (-TS)   =      -0.01487573 Ry

     convergence has been achieved in   8 iterations

     Forces acting on atoms (cartesian axes, Ry/au):

     atom    1 type  1   force =     0.00060642   -0.00035523    0.00000000
     atom    2 type  1   force =    -0.00001059    0.00000656    0.00000000
     atom    3 type  1   force =    -0.00060486   -0.00035971    0.00000000
     atom    4 type  1   force =     0.00000835   -0.00949920    0.00000000
     atom    5 type  1   force =     0.00000338    0.00069052    0.00000000
     atom    6 type  1   force =     0.00822436    0.00475251    0.00000000
     atom    7 type  1   force =    -0.00822706    0.00476456    0.00000000

     Total force =     0.016502     Total SCF correction =     0.000422


     Computing stress (Cartesian axis) and pressure

          total   stress  (Ry/bohr**3)                   (kbar)     P=   -1.55
  -0.00001579   0.00000001   0.00000000         -2.32      0.00      0.00
   0.00000001  -0.00001580   0.00000000          0.00     -2.32      0.00
   0.00000000   0.00000000   0.00000007          0.00      0.00      0.01


     number of scf cycles    =   3
     number of bfgs steps    =   2

     enthalpy old            =     -31.6771112220 Ry
     enthalpy new            =     -31.6777669963 Ry

     CASE: enthalpy_new < enthalpy_old

     new trust radius        =       0.0242111218 bohr
     new conv_thr            =       0.0000006558 Ry

     new unit-cell volume =   9248.01450 a.u.^3 (  1370.41434 Ang^3 )
     density =      0.25431 g/cm^3

CELL_PARAMETERS (alat= 16.84048341)
   0.998135930   0.000001256   0.000000000
  -0.499066878   0.864411478   0.000000000
   0.000000000   0.000000000   2.244265901

ATOMIC_POSITIONS (angstrom)
Al       0.004588187   2.565106971   0.000000000
Al       2.223794187   1.283900040   0.000000000
Al       4.442923383   2.565137481   0.000000000
Al       6.671267282   1.256918129   0.000000000
Al      -2.223748962   6.424744026   0.000000000
Al       0.023402837   5.149148277   0.000000000
Al       4.424217536   5.149117974   0.000000000



     Writing output data file 7al_planar_2x2_vcr.save/
     NEW-OLD atomic charge density approx. for the potential

     negative rho (up, down):  2.571E-07 0.000E+00
     extrapolated charge   20.96113, renormalised to   21.00000

     total cpu time spent up to now is       69.1 secs

     Self-consistent Calculation

     iteration #  1     ecut=    80.00 Ry     beta= 0.40
     Davidson diagonalization with overlap
     ethr =  1.00E-06,  avg # of iterations =  4.0

     negative rho (up, down):  1.323E-07 0.000E+00

     total cpu time spent up to now is       70.3 secs

     total energy              =     -31.67849897 Ry
     Harris-Foulkes estimate   =     -31.85428208 Ry
     estimated scf accuracy    <       0.00023741 Ry

     iteration #  2     ecut=    80.00 Ry     beta= 0.40
     Davidson diagonalization with overlap
     ethr =  1.13E-06,  avg # of iterations =  5.0

     negative rho (up, down):  1.051E-07 0.000E+00

     total cpu time spent up to now is       71.3 secs

     total energy              =     -31.67866871 Ry
     Harris-Foulkes estimate   =     -31.67879518 Ry
     estimated scf accuracy    <       0.00056849 Ry

     iteration #  3     ecut=    80.00 Ry     beta= 0.40
     Davidson diagonalization with overlap
     ethr =  1.13E-06,  avg # of iterations =  2.0

     negative rho (up, down):  8.791E-08 0.000E+00

     total cpu time spent up to now is       72.0 secs

     total energy              =     -31.67870048 Ry
     Harris-Foulkes estimate   =     -31.67870768 Ry
     estimated scf accuracy    <       0.00007758 Ry

     iteration #  4     ecut=    80.00 Ry     beta= 0.40
     Davidson diagonalization with overlap
     ethr =  3.69E-07,  avg # of iterations =  3.0

     negative rho (up, down):  1.596E-08 0.000E+00

     total cpu time spent up to now is       72.8 secs

     total energy              =     -31.67868470 Ry
     Harris-Foulkes estimate   =     -31.67870214 Ry
     estimated scf accuracy    <       0.00005004 Ry

     iteration #  5     ecut=    80.00 Ry     beta= 0.40
     Davidson diagonalization with overlap
     ethr =  2.38E-07,  avg # of iterations =  3.0

     total cpu time spent up to now is       73.8 secs

     total energy              =     -31.67869639 Ry
     Harris-Foulkes estimate   =     -31.67869678 Ry
     estimated scf accuracy    <       0.00000706 Ry

     iteration #  6     ecut=    80.00 Ry     beta= 0.40
     Davidson diagonalization with overlap
     ethr =  3.36E-08,  avg # of iterations =  5.0

     total cpu time spent up to now is       74.6 secs

     total energy              =     -31.67869594 Ry
     Harris-Foulkes estimate   =     -31.67869707 Ry
     estimated scf accuracy    <       0.00000599 Ry

     iteration #  7     ecut=    80.00 Ry     beta= 0.40
     Davidson diagonalization with overlap
     ethr =  2.85E-08,  avg # of iterations =  1.0

     total cpu time spent up to now is       75.4 secs

     total energy              =     -31.67869464 Ry
     Harris-Foulkes estimate   =     -31.67869610 Ry
     estimated scf accuracy    <       0.00000339 Ry

     iteration #  8     ecut=    80.00 Ry     beta= 0.40
     Davidson diagonalization with overlap
     ethr =  1.62E-08,  avg # of iterations =  3.0

     total cpu time spent up to now is       76.3 secs

     End of self-consistent calculation

          k = 0.0000 0.0000 0.0000 (111965 PWs)   bands (ev):

    -9.6386  -8.0523  -8.0521  -7.5065  -6.5632  -6.5632  -4.2472  -3.7935
    -3.2393  -2.7802  -2.7801  -2.2214  -2.2213  -1.7164  -0.8831

     the Fermi energy is    -2.6351 ev

!    total energy              =     -31.67869517 Ry
     Harris-Foulkes estimate   =     -31.67869559 Ry
     estimated scf accuracy    <       0.00000052 Ry

     The total energy is the sum of the following terms:

     one-electron contribution =    -103.99879357 Ry
     hartree contribution      =      54.09510264 Ry
     xc contribution           =     -13.75514892 Ry
     ewald contribution        =      31.99550764 Ry
     smearing contrib. (-TS)   =      -0.01536296 Ry

     convergence has been achieved in   8 iterations

     Forces acting on atoms (cartesian axes, Ry/au):

     atom    1 type  1   force =    -0.00078672    0.00044300    0.00000000
     atom    2 type  1   force =    -0.00000510    0.00000194    0.00000000
     atom    3 type  1   force =     0.00078707    0.00044619    0.00000000
     atom    4 type  1   force =     0.00000302   -0.00846626    0.00000000
     atom    5 type  1   force =    -0.00000436   -0.00090321    0.00000000
     atom    6 type  1   force =     0.00734225    0.00423737    0.00000000
     atom    7 type  1   force =    -0.00733616    0.00424097    0.00000000

     Total force =     0.014758     Total SCF correction =     0.000611


     Computing stress (Cartesian axis) and pressure

          total   stress  (Ry/bohr**3)                   (kbar)     P=   -1.63
  -0.00001663   0.00000001   0.00000000         -2.45      0.00      0.00
   0.00000001  -0.00001665   0.00000000          0.00     -2.45      0.00
   0.00000000   0.00000000   0.00000008          0.00      0.00      0.01


     number of scf cycles    =   4
     number of bfgs steps    =   3

     enthalpy old            =     -31.6777669963 Ry
     enthalpy new            =     -31.6786951659 Ry

     CASE: enthalpy_new < enthalpy_old

     new trust radius        =       0.0362831043 bohr
     new conv_thr            =       0.0000008466 Ry

     new unit-cell volume =   9220.84617 a.u.^3 (  1366.38841 Ang^3 )
     density =      0.25505 g/cm^3

CELL_PARAMETERS (alat= 16.84048341)
   0.996668470   0.000002176   0.000000000
  -0.498332350   0.863140586   0.000000000
   0.000000000   0.000000000   2.244265901

ATOMIC_POSITIONS (angstrom)
Al       0.006341077   2.560293916   0.000000000
Al       2.220534850   1.282013769   0.000000000
Al       4.434623547   2.560330931   0.000000000
Al       6.661454318   1.235915096   0.000000000
Al      -2.220484178   6.417331107   0.000000000
Al       0.039958584   5.151197709   0.000000000
Al       4.401153007   5.151152617   0.000000000



     Writing output data file 7al_planar_2x2_vcr.save/
     NEW-OLD atomic charge density approx. for the potential

     negative rho (up, down):  4.174E-07 0.000E+00
     extrapolated charge   20.93818, renormalised to   21.00000

     total cpu time spent up to now is       90.0 secs

     Self-consistent Calculation

     iteration #  1     ecut=    80.00 Ry     beta= 0.40
     Davidson diagonalization with overlap
     ethr =  1.00E-06,  avg # of iterations =  5.0

     negative rho (up, down):  2.200E-07 0.000E+00

     total cpu time spent up to now is       91.2 secs

     total energy              =     -31.67952232 Ry
     Harris-Foulkes estimate   =     -31.95973396 Ry
     estimated scf accuracy    <       0.00053875 Ry

     iteration #  2     ecut=    80.00 Ry     beta= 0.40
     Davidson diagonalization with overlap
     ethr =  2.57E-06,  avg # of iterations =  5.0

     negative rho (up, down):  1.767E-07 0.000E+00

     total cpu time spent up to now is       92.3 secs

     total energy              =     -31.67992245 Ry
     Harris-Foulkes estimate   =     -31.68022274 Ry
     estimated scf accuracy    <       0.00137400 Ry

     iteration #  3     ecut=    80.00 Ry     beta= 0.40
     Davidson diagonalization with overlap
     ethr =  2.57E-06,  avg # of iterations =  2.0

     negative rho (up, down):  1.461E-07 0.000E+00

     total cpu time spent up to now is       93.1 secs

     total energy              =     -31.67999340 Ry
     Harris-Foulkes estimate   =     -31.68001270 Ry
     estimated scf accuracy    <       0.00019578 Ry

     iteration #  4     ecut=    80.00 Ry     beta= 0.40
     Davidson diagonalization with overlap
     ethr =  9.32E-07,  avg # of iterations =  1.0

     negative rho (up, down):  1.511E-08 0.000E+00

     total cpu time spent up to now is       93.8 secs

     total energy              =     -31.67995073 Ry
     Harris-Foulkes estimate   =     -31.67999751 Ry
     estimated scf accuracy    <       0.00012188 Ry

     iteration #  5     ecut=    80.00 Ry     beta= 0.40
     Davidson diagonalization with overlap
     ethr =  5.80E-07,  avg # of iterations =  5.0

     negative rho (up, down):  1.205E-08 0.000E+00

     total cpu time spent up to now is       94.8 secs

     total energy              =     -31.67998854 Ry
     Harris-Foulkes estimate   =     -31.67998979 Ry
     estimated scf accuracy    <       0.00002612 Ry

     iteration #  6     ecut=    80.00 Ry     beta= 0.40
     Davidson diagonalization with overlap
     ethr =  1.24E-07,  avg # of iterations =  1.0

     negative rho (up, down):  1.209E-08 0.000E+00

     total cpu time spent up to now is       95.6 secs

     total energy              =     -31.67998922 Ry
     Harris-Foulkes estimate   =     -31.67998913 Ry
     estimated scf accuracy    <       0.00002369 Ry

     iteration #  7     ecut=    80.00 Ry     beta= 0.40
     Davidson diagonalization with overlap
     ethr =  1.13E-07,  avg # of iterations =  1.0

     negative rho (up, down):  1.236E-08 0.000E+00

     total cpu time spent up to now is       96.4 secs

     total energy              =     -31.67998259 Ry
     Harris-Foulkes estimate   =     -31.67998937 Ry
     estimated scf accuracy    <       0.00002384 Ry

     iteration #  8     ecut=    80.00 Ry     beta= 0.40
     Davidson diagonalization with overlap
     ethr =  1.13E-07,  avg # of iterations =  1.0

     total cpu time spent up to now is       97.1 secs

     total energy              =     -31.67998186 Ry
     Harris-Foulkes estimate   =     -31.67998391 Ry
     estimated scf accuracy    <       0.00000639 Ry

     iteration #  9     ecut=    80.00 Ry     beta= 0.40
     Davidson diagonalization with overlap
     ethr =  3.04E-08,  avg # of iterations =  3.0

     total cpu time spent up to now is       98.1 secs

     total energy              =     -31.67998287 Ry
     Harris-Foulkes estimate   =     -31.67998303 Ry
     estimated scf accuracy    <       0.00000190 Ry

     iteration # 10     ecut=    80.00 Ry     beta= 0.40
     Davidson diagonalization with overlap
     ethr =  9.06E-09,  avg # of iterations =  3.0

     total cpu time spent up to now is       98.9 secs

     total energy              =     -31.67998269 Ry
     Harris-Foulkes estimate   =     -31.67998292 Ry
     estimated scf accuracy    <       0.00000115 Ry

     iteration # 11     ecut=    80.00 Ry     beta= 0.40
     Davidson diagonalization with overlap
     ethr =  5.50E-09,  avg # of iterations =  1.0

     total cpu time spent up to now is       99.6 secs

     End of self-consistent calculation

          k = 0.0000 0.0000 0.0000 (111965 PWs)   bands (ev):

    -9.6344  -8.0357  -8.0354  -7.4958  -6.5670  -6.5668  -4.2929  -3.7899
    -3.2215  -2.7586  -2.7584  -2.2081  -2.2079  -1.7083  -0.8862

     the Fermi energy is    -2.6160 ev

!    total energy              =     -31.67998271 Ry
     Harris-Foulkes estimate   =     -31.67998279 Ry
     estimated scf accuracy    <       0.00000018 Ry

     The total energy is the sum of the following terms:

     one-electron contribution =    -104.17768418 Ry
     hartree contribution      =      54.18543870 Ry
     xc contribution           =     -13.75129193 Ry
     ewald contribution        =      32.07970301 Ry
     smearing contrib. (-TS)   =      -0.01614830 Ry

     convergence has been achieved in  11 iterations

     Forces acting on atoms (cartesian axes, Ry/au):

     atom    1 type  1   force =    -0.00262734    0.00150969    0.00000000
     atom    2 type  1   force =     0.00000191    0.00001167    0.00000000
     atom    3 type  1   force =     0.00261952    0.00150491    0.00000000
     atom    4 type  1   force =     0.00000415   -0.00704161    0.00000000
     atom    5 type  1   force =    -0.00000083   -0.00302356    0.00000000
     atom    6 type  1   force =     0.00611226    0.00351727    0.00000000
     atom    7 type  1   force =    -0.00610968    0.00352163    0.00000000

     Total force =     0.013285     Total SCF correction =     0.000214


     Computing stress (Cartesian axis) and pressure

          total   stress  (Ry/bohr**3)                   (kbar)     P=   -1.74
  -0.00001779   0.00000001   0.00000000         -2.62      0.00      0.00
   0.00000001  -0.00001782   0.00000000          0.00     -2.62      0.00
   0.00000000   0.00000000   0.00000004          0.00      0.00      0.01


     number of scf cycles    =   5
     number of bfgs steps    =   4

     enthalpy old            =     -31.6786951659 Ry
     enthalpy new            =     -31.6799827080 Ry

     CASE: enthalpy_new < enthalpy_old

     new trust radius        =       0.0543446917 bohr
     new conv_thr            =       0.0000007042 Ry

     new unit-cell volume =   9178.00985 a.u.^3 (  1360.04072 Ang^3 )
     density =      0.25625 g/cm^3

CELL_PARAMETERS (alat= 16.84048341)
   0.994350408   0.000003683   0.000000000
  -0.497172015   0.861132861   0.000000000
   0.000000000   0.000000000   2.244265901

ATOMIC_POSITIONS (angstrom)
Al       0.007751666   2.553478129   0.000000000
Al       2.215393296   1.279041555   0.000000000
Al       4.422865174   2.553519792   0.000000000
Al       6.645952546   1.204376117   0.000000000
Al      -2.215324137   6.404054825   0.000000000
Al       0.064694715   5.153610730   0.000000000
Al       4.366133465   5.153539969   0.000000000



     Writing output data file 7al_planar_2x2_vcr.save/
     NEW-OLD atomic charge density approx. for the potential

     negative rho (up, down):  8.812E-07 0.000E+00
     extrapolated charge   20.90207, renormalised to   21.00000

     total cpu time spent up to now is      113.3 secs

     Self-consistent Calculation

     iteration #  1     ecut=    80.00 Ry     beta= 0.40
     Davidson diagonalization with overlap
     ethr =  1.00E-06,  avg # of iterations =  5.0

     negative rho (up, down):  4.777E-07 0.000E+00

     total cpu time spent up to now is      114.6 secs

     total energy              =     -31.68062058 Ry
     Harris-Foulkes estimate   =     -32.12607950 Ry
     estimated scf accuracy    <       0.00126990 Ry

     iteration #  2     ecut=    80.00 Ry     beta= 0.40
     Davidson diagonalization with overlap
     ethr =  6.05E-06,  avg # of iterations =  5.0

     negative rho (up, down):  3.886E-07 0.000E+00

     total cpu time spent up to now is      115.7 secs

     total energy              =     -31.68157549 Ry
     Harris-Foulkes estimate   =     -31.68233501 Ry
     estimated scf accuracy    <       0.00355554 Ry

     iteration #  3     ecut=    80.00 Ry     beta= 0.40
     Davidson diagonalization with overlap
     ethr =  6.05E-06,  avg # of iterations =  2.0

     negative rho (up, down):  3.241E-07 0.000E+00

     total cpu time spent up to now is      116.4 secs

     total energy              =     -31.68174892 Ry
     Harris-Foulkes estimate   =     -31.68179656 Ry
     estimated scf accuracy    <       0.00050634 Ry

     iteration #  4     ecut=    80.00 Ry     beta= 0.40
     Davidson diagonalization with overlap
     ethr =  2.41E-06,  avg # of iterations =  1.0

     negative rho (up, down):  5.081E-08 0.000E+00

     total cpu time spent up to now is      117.2 secs

     total energy              =     -31.68164779 Ry
     Harris-Foulkes estimate   =     -31.68175919 Ry
     estimated scf accuracy    <       0.00031295 Ry

     iteration #  5     ecut=    80.00 Ry     beta= 0.40
     Davidson diagonalization with overlap
     ethr =  1.49E-06,  avg # of iterations =  5.0

     negative rho (up, down):  4.491E-08 0.000E+00

     total cpu time spent up to now is      118.2 secs

     total energy              =     -31.68172912 Ry
     Harris-Foulkes estimate   =     -31.68173241 Ry
     estimated scf accuracy    <       0.00003902 Ry

     iteration #  6     ecut=    80.00 Ry     beta= 0.40
     Davidson diagonalization with overlap
     ethr =  1.86E-07,  avg # of iterations =  3.0

     negative rho (up, down):  3.543E-08 0.000E+00

     total cpu time spent up to now is      119.0 secs

     total energy              =     -31.68172513 Ry
     Harris-Foulkes estimate   =     -31.68173171 Ry
     estimated scf accuracy    <       0.00003259 Ry

     iteration #  7     ecut=    80.00 Ry     beta= 0.40
     Davidson diagonalization with overlap
     ethr =  1.55E-07,  avg # of iterations =  1.0

     total cpu time spent up to now is      119.8 secs

     total energy              =     -31.68172135 Ry
     Harris-Foulkes estimate   =     -31.68172623 Ry
     estimated scf accuracy    <       0.00001560 Ry

     iteration #  8     ecut=    80.00 Ry     beta= 0.40
     Davidson diagonalization with overlap
     ethr =  7.43E-08,  avg # of iterations =  3.0

     total cpu time spent up to now is      120.7 secs

     total energy              =     -31.68172409 Ry
     Harris-Foulkes estimate   =     -31.68172447 Ry
     estimated scf accuracy    <       0.00000168 Ry

     iteration #  9     ecut=    80.00 Ry     beta= 0.40
     Davidson diagonalization with overlap
     ethr =  7.99E-09,  avg # of iterations =  5.0

     total cpu time spent up to now is      121.7 secs

     total energy              =     -31.68172431 Ry
     Harris-Foulkes estimate   =     -31.68172436 Ry
     estimated scf accuracy    <       0.00000078 Ry

     iteration # 10     ecut=    80.00 Ry     beta= 0.40
     Davidson diagonalization with overlap
     ethr =  3.70E-09,  avg # of iterations =  2.0

     total cpu time spent up to now is      122.4 secs

     End of self-consistent calculation

          k = 0.0000 0.0000 0.0000 (111965 PWs)   bands (ev):

    -9.6327  -8.0145  -8.0141  -7.4839  -6.5754  -6.5751  -4.3673  -3.7876
    -3.1972  -2.7287  -2.7286  -2.1903  -2.1900  -1.6993  -0.8920

     the Fermi energy is    -2.5899 ev

!    total energy              =     -31.68172383 Ry
     Harris-Foulkes estimate   =     -31.68172437 Ry
     estimated scf accuracy    <       0.00000068 Ry

     The total energy is the sum of the following terms:

     one-electron contribution =    -104.47821924 Ry
     hartree contribution      =      54.33800488 Ry
     xc contribution           =     -13.74646893 Ry
     ewald contribution        =      32.22218787 Ry
     smearing contrib. (-TS)   =      -0.01722841 Ry

     convergence has been achieved in  10 iterations

     Forces acting on atoms (cartesian axes, Ry/au):

     atom    1 type  1   force =    -0.00498383    0.00286703    0.00000000
     atom    2 type  1   force =    -0.00002049   -0.00000551    0.00000000
     atom    3 type  1   force =     0.00499210    0.00286790    0.00000000
     atom    4 type  1   force =     0.00001380   -0.00506923    0.00000000
     atom    5 type  1   force =    -0.00000101   -0.00572820    0.00000000
     atom    6 type  1   force =     0.00439484    0.00252471    0.00000000
     atom    7 type  1   force =    -0.00439541    0.00254330    0.00000000

     Total force =     0.013274     Total SCF correction =     0.000357


     Computing stress (Cartesian axis) and pressure

          total   stress  (Ry/bohr**3)                   (kbar)     P=   -1.90
  -0.00001943   0.00000002   0.00000000         -2.86      0.00      0.00
   0.00000002  -0.00001949   0.00000000          0.00     -2.87      0.00
   0.00000000   0.00000000   0.00000018          0.00      0.00      0.03


     number of scf cycles    =   6
     number of bfgs steps    =   5

     enthalpy old            =     -31.6799827080 Ry
     enthalpy new            =     -31.6817238315 Ry

     CASE: enthalpy_new < enthalpy_old

     new trust radius        =       0.0813275643 bohr
     new conv_thr            =       0.0000005728 Ry

     new unit-cell volume =   9110.66142 a.u.^3 (  1350.06072 Ang^3 )
     density =      0.25814 g/cm^3

CELL_PARAMETERS (alat= 16.84048341)
   0.990695465   0.000006306   0.000000000
  -0.495342271   0.857966171   0.000000000
   0.000000000   0.000000000   2.244265901

ATOMIC_POSITIONS (angstrom)
Al       0.008197861   2.543753015   0.000000000
Al       2.207269262   1.274339103   0.000000000
Al       4.406119188   2.543808943   0.000000000
Al       6.621516576   1.157104040   0.000000000
Al      -2.207187215   6.381073176   0.000000000
Al       0.101562612   5.156178902   0.000000000
Al       4.313051942   5.156076608   0.000000000



     Writing output data file 7al_planar_2x2_vcr.save/
     NEW-OLD atomic charge density approx. for the potential

     negative rho (up, down):  2.585E-06 0.000E+00
     extrapolated charge   20.84489, renormalised to   21.00000

     total cpu time spent up to now is      136.2 secs

     Self-consistent Calculation

     iteration #  1     ecut=    80.00 Ry     beta= 0.40
     Davidson diagonalization with overlap
     ethr =  1.00E-06,  avg # of iterations =  7.0

     negative rho (up, down):  1.449E-06 0.000E+00

     total cpu time spent up to now is      137.5 secs

     total energy              =     -31.68141927 Ry
     Harris-Foulkes estimate   =     -32.39097604 Ry
     estimated scf accuracy    <       0.00283743 Ry

     iteration #  2     ecut=    80.00 Ry     beta= 0.40
     Davidson diagonalization with overlap
     ethr =  1.35E-05,  avg # of iterations =  5.0

     negative rho (up, down):  1.196E-06 0.000E+00

     total cpu time spent up to now is      138.6 secs

     total energy              =     -31.68364824 Ry
     Harris-Foulkes estimate   =     -31.68546801 Ry
     estimated scf accuracy    <       0.00879733 Ry

     iteration #  3     ecut=    80.00 Ry     beta= 0.40
     Davidson diagonalization with overlap
     ethr =  1.35E-05,  avg # of iterations =  2.0

     negative rho (up, down):  9.864E-07 0.000E+00

     total cpu time spent up to now is      139.3 secs

     total energy              =     -31.68404627 Ry
     Harris-Foulkes estimate   =     -31.68417288 Ry
     estimated scf accuracy    <       0.00128507 Ry

     iteration #  4     ecut=    80.00 Ry     beta= 0.40
     Davidson diagonalization with overlap
     ethr =  6.12E-06,  avg # of iterations =  1.0

     negative rho (up, down):  2.008E-07 0.000E+00

     total cpu time spent up to now is      140.1 secs

     total energy              =     -31.68381285 Ry
     Harris-Foulkes estimate   =     -31.68407071 Ry
     estimated scf accuracy    <       0.00076315 Ry

     iteration #  5     ecut=    80.00 Ry     beta= 0.40
     Davidson diagonalization with overlap
     ethr =  3.63E-06,  avg # of iterations =  5.0

     negative rho (up, down):  1.762E-07 0.000E+00

     total cpu time spent up to now is      141.0 secs

     total energy              =     -31.68399613 Ry
     Harris-Foulkes estimate   =     -31.68400065 Ry
     estimated scf accuracy    <       0.00006855 Ry

     iteration #  6     ecut=    80.00 Ry     beta= 0.40
     Davidson diagonalization with overlap
     ethr =  3.26E-07,  avg # of iterations =  3.0

     negative rho (up, down):  1.615E-07 0.000E+00

     total cpu time spent up to now is      141.9 secs

     total energy              =     -31.68399908 Ry
     Harris-Foulkes estimate   =     -31.68400682 Ry
     estimated scf accuracy    <       0.00006475 Ry

     iteration #  7     ecut=    80.00 Ry     beta= 0.40
     Davidson diagonalization with overlap
     ethr =  3.08E-07,  avg # of iterations =  1.0

     negative rho (up, down):  3.048E-08 0.000E+00

     total cpu time spent up to now is      142.7 secs

     total energy              =     -31.68397605 Ry
     Harris-Foulkes estimate   =     -31.68399988 Ry
     estimated scf accuracy    <       0.00004769 Ry

     iteration #  8     ecut=    80.00 Ry     beta= 0.40
     Davidson diagonalization with overlap
     ethr =  2.27E-07,  avg # of iterations =  4.0

     total cpu time spent up to now is      143.6 secs

     total energy              =     -31.68398973 Ry
     Harris-Foulkes estimate   =     -31.68399150 Ry
     estimated scf accuracy    <       0.00001050 Ry

     iteration #  9     ecut=    80.00 Ry     beta= 0.40
     Davidson diagonalization with overlap
     ethr =  5.00E-08,  avg # of iterations =  2.0

     total cpu time spent up to now is      144.4 secs

     total energy              =     -31.68398901 Ry
     Harris-Foulkes estimate   =     -31.68399052 Ry
     estimated scf accuracy    <       0.00000406 Ry

     iteration # 10     ecut=    80.00 Ry     beta= 0.40
     Davidson diagonalization with overlap
     ethr =  1.93E-08,  avg # of iterations =  5.0

     total cpu time spent up to now is      145.4 secs

     total energy              =     -31.68399007 Ry
     Harris-Foulkes estimate   =     -31.68399061 Ry
     estimated scf accuracy    <       0.00000284 Ry

     iteration # 11     ecut=    80.00 Ry     beta= 0.40
     Davidson diagonalization with overlap
     ethr =  1.35E-08,  avg # of iterations =  1.0

     total cpu time spent up to now is      146.2 secs

     total energy              =     -31.68398968 Ry
     Harris-Foulkes estimate   =     -31.68399019 Ry
     estimated scf accuracy    <       0.00000118 Ry

     iteration # 12     ecut=    80.00 Ry     beta= 0.40
     Davidson diagonalization with overlap
     ethr =  5.62E-09,  avg # of iterations =  5.0

     total cpu time spent up to now is      147.1 secs

     End of self-consistent calculation

          k = 0.0000 0.0000 0.0000 (111965 PWs)   bands (ev):

    -9.6290  -7.9801  -7.9795  -7.4642  -6.5842  -6.5836  -4.4804  -3.7834
    -3.1548  -2.6794  -2.6792  -2.1614  -2.1609  -1.6854  -0.8971

     the Fermi energy is    -2.5471 ev

!    total energy              =     -31.68398993 Ry
     Harris-Foulkes estimate   =     -31.68398996 Ry
     estimated scf accuracy    <       0.00000005 Ry

     The total energy is the sum of the following terms:

     one-electron contribution =    -104.97641019 Ry
     hartree contribution      =      54.58704077 Ry
     xc contribution           =     -13.73924653 Ry
     ewald contribution        =      32.46357656 Ry
     smearing contrib. (-TS)   =      -0.01895054 Ry

     convergence has been achieved in  12 iterations

     Forces acting on atoms (cartesian axes, Ry/au):

     atom    1 type  1   force =    -0.00809377    0.00468009    0.00000000
     atom    2 type  1   force =    -0.00001894   -0.00000882    0.00000000
     atom    3 type  1   force =     0.00810191    0.00468643    0.00000000
     atom    4 type  1   force =     0.00001516   -0.00233834    0.00000000
     atom    5 type  1   force =    -0.00000227   -0.00931858    0.00000000
     atom    6 type  1   force =     0.00203275    0.00113929    0.00000000
     atom    7 type  1   force =    -0.00203484    0.00115992    0.00000000

     Total force =     0.016680     Total SCF correction =     0.000178


     Computing stress (Cartesian axis) and pressure

          total   stress  (Ry/bohr**3)                   (kbar)     P=   -2.14
  -0.00002177   0.00000002   0.00000000         -3.20      0.00      0.00
   0.00000002  -0.00002186   0.00000000          0.00     -3.22      0.00
   0.00000000   0.00000000  -0.00000002          0.00      0.00     -0.00


     number of scf cycles    =   7
     number of bfgs steps    =   6

     enthalpy old            =     -31.6817238315 Ry
     enthalpy new            =     -31.6839899299 Ry

     CASE: enthalpy_new < enthalpy_old

     new trust radius        =       0.1215432190 bohr
     new conv_thr            =       0.0000009319 Ry

     new unit-cell volume =   9004.85866 a.u.^3 (  1334.38237 Ang^3 )
     density =      0.26117 g/cm^3

CELL_PARAMETERS (alat= 16.84048341)
   0.984926763   0.000010749   0.000000000
  -0.492454073   0.852967047   0.000000000
   0.000000000   0.000000000   2.244265901

ATOMIC_POSITIONS (angstrom)
Al       0.006368103   2.529880652   0.000000000
Al       2.194449937   1.266912080   0.000000000
Al       4.382226024   2.529967036   0.000000000
Al       6.582946810   1.086470423   0.000000000
Al      -2.194344214   6.341865372   0.000000000
Al       0.156311904   5.158223772   0.000000000
Al       4.232714546   5.158069183   0.000000000



     Writing output data file 7al_planar_2x2_vcr.save/
     NEW-OLD atomic charge density approx. for the potential

     negative rho (up, down):  7.071E-06 0.000E+00
     extrapolated charge   20.75346, renormalised to   21.00000

     total cpu time spent up to now is      160.8 secs

     Self-consistent Calculation

     iteration #  1     ecut=    80.00 Ry     beta= 0.40
     Davidson diagonalization with overlap
     ethr =  1.00E-06,  avg # of iterations =  8.0

     negative rho (up, down):  4.115E-06 0.000E+00

     total cpu time spent up to now is      162.4 secs

     total energy              =     -31.68038600 Ry
     Harris-Foulkes estimate   =     -32.81911135 Ry
     estimated scf accuracy    <       0.00708202 Ry

     iteration #  2     ecut=    80.00 Ry     beta= 0.40
     Davidson diagonalization with overlap
     ethr =  3.37E-05,  avg # of iterations =  5.0

     negative rho (up, down):  3.419E-06 0.000E+00

     total cpu time spent up to now is      163.5 secs

     total energy              =     -31.68580811 Ry
     Harris-Foulkes estimate   =     -31.69055668 Ry
     estimated scf accuracy    <       0.02327206 Ry

     iteration #  3     ecut=    80.00 Ry     beta= 0.40
     Davidson diagonalization with overlap
     ethr =  3.37E-05,  avg # of iterations =  2.0

     negative rho (up, down):  2.795E-06 0.000E+00

     total cpu time spent up to now is      164.2 secs

     total energy              =     -31.68685543 Ry
     Harris-Foulkes estimate   =     -31.68719323 Ry
     estimated scf accuracy    <       0.00327184 Ry

     iteration #  4     ecut=    80.00 Ry     beta= 0.40
     Davidson diagonalization with overlap
     ethr =  1.56E-05,  avg # of iterations =  1.0

     negative rho (up, down):  6.301E-07 0.000E+00

     total cpu time spent up to now is      165.0 secs

     total energy              =     -31.68633968 Ry
     Harris-Foulkes estimate   =     -31.68692855 Ry
     estimated scf accuracy    <       0.00182482 Ry

     iteration #  5     ecut=    80.00 Ry     beta= 0.40
     Davidson diagonalization with overlap
     ethr =  8.69E-06,  avg # of iterations =  4.0

     negative rho (up, down):  5.945E-07 0.000E+00

     total cpu time spent up to now is      165.9 secs

     total energy              =     -31.68677498 Ry
     Harris-Foulkes estimate   =     -31.68678208 Ry
     estimated scf accuracy    <       0.00014925 Ry

     iteration #  6     ecut=    80.00 Ry     beta= 0.40
     Davidson diagonalization with overlap
     ethr =  7.11E-07,  avg # of iterations =  3.0

     negative rho (up, down):  6.195E-07 0.000E+00

     total cpu time spent up to now is      166.8 secs

     total energy              =     -31.68678959 Ry
     Harris-Foulkes estimate   =     -31.68680503 Ry
     estimated scf accuracy    <       0.00017126 Ry

     iteration #  7     ecut=    80.00 Ry     beta= 0.40
     Davidson diagonalization with overlap
     ethr =  7.11E-07,  avg # of iterations =  1.0

     negative rho (up, down):  1.068E-07 0.000E+00

     total cpu time spent up to now is      167.5 secs

     total energy              =     -31.68671185 Ry
     Harris-Foulkes estimate   =     -31.68679185 Ry
     estimated scf accuracy    <       0.00012898 Ry

     iteration #  8     ecut=    80.00 Ry     beta= 0.40
     Davidson diagonalization with overlap
     ethr =  6.14E-07,  avg # of iterations =  5.0

     negative rho (up, down):  1.531E-08 0.000E+00

     total cpu time spent up to now is      168.6 secs

     total energy              =     -31.68677525 Ry
     Harris-Foulkes estimate   =     -31.68679954 Ry
     estimated scf accuracy    <       0.00018963 Ry

     iteration #  9     ecut=    80.00 Ry     beta= 0.40
     Davidson diagonalization with overlap
     ethr =  6.14E-07,  avg # of iterations =  1.0

     negative rho (up, down):  3.067E-08 0.000E+00

     total cpu time spent up to now is      169.3 secs

     total energy              =     -31.68675131 Ry
     Harris-Foulkes estimate   =     -31.68677915 Ry
     estimated scf accuracy    <       0.00009366 Ry

     iteration # 10     ecut=    80.00 Ry     beta= 0.40
     Davidson diagonalization with overlap
     ethr =  4.46E-07,  avg # of iterations =  4.0

     negative rho (up, down):  2.750E-08 0.000E+00

     total cpu time spent up to now is      170.2 secs

     total energy              =     -31.68676560 Ry
     Harris-Foulkes estimate   =     -31.68676505 Ry
     estimated scf accuracy    <       0.00000584 Ry

     iteration # 11     ecut=    80.00 Ry     beta= 0.40
     Davidson diagonalization with overlap
     ethr =  2.78E-08,  avg # of iterations =  5.0

     total cpu time spent up to now is      171.3 secs

     total energy              =     -31.68676161 Ry
     Harris-Foulkes estimate   =     -31.68676991 Ry
     estimated scf accuracy    <       0.00001634 Ry

     iteration # 12     ecut=    80.00 Ry     beta= 0.40
     Davidson diagonalization with overlap
     ethr =  2.78E-08,  avg # of iterations =  5.0

     total cpu time spent up to now is      172.4 secs

     total energy              =     -31.68676658 Ry
     Harris-Foulkes estimate   =     -31.68676609 Ry
     estimated scf accuracy    <       0.00000280 Ry

     iteration # 13     ecut=    80.00 Ry     beta= 0.40
     Davidson diagonalization with overlap
     ethr =  1.33E-08,  avg # of iterations =  1.0

     total cpu time spent up to now is      173.1 secs

     total energy              =     -31.68676557 Ry
     Harris-Foulkes estimate   =     -31.68676671 Ry
     estimated scf accuracy    <       0.00000349 Ry

     iteration # 14     ecut=    80.00 Ry     beta= 0.40
     Davidson diagonalization with overlap
     ethr =  1.33E-08,  avg # of iterations =  1.0

     total cpu time spent up to now is      173.9 secs

     End of self-consistent calculation

          k = 0.0000 0.0000 0.0000 (111965 PWs)   bands (ev):

    -9.6313  -7.9326  -7.9317  -7.4433  -6.5984  -6.5976  -4.6581  -3.7826
    -3.0882  -2.6093  -2.6090  -2.1197  -2.1191  -1.6722  -0.9037

     the Fermi energy is    -2.4863 ev

!    total energy              =     -31.68676552 Ry
     Harris-Foulkes estimate   =     -31.68676584 Ry
     estimated scf accuracy    <       0.00000042 Ry

     The total energy is the sum of the following terms:

     one-electron contribution =    -105.82350401 Ry
     hartree contribution      =      55.01258906 Ry
     xc contribution           =     -13.73105113 Ry
     ewald contribution        =      32.87665134 Ry
     smearing contrib. (-TS)   =      -0.02145078 Ry

     convergence has been achieved in  14 iterations

     Forces acting on atoms (cartesian axes, Ry/au):

     atom    1 type  1   force =    -0.01199632    0.00691840    0.00000000
     atom    2 type  1   force =    -0.00002440    0.00000015    0.00000000
     atom    3 type  1   force =     0.01199706    0.00693330    0.00000000
     atom    4 type  1   force =     0.00002893    0.00143442    0.00000000
     atom    5 type  1   force =    -0.00001226   -0.01381751    0.00000000
     atom    6 type  1   force =    -0.00123181   -0.00074918    0.00000000
     atom    7 type  1   force =     0.00123880   -0.00071957    0.00000000

     Total force =     0.024102     Total SCF correction =     0.000382


     Computing stress (Cartesian axis) and pressure

          total   stress  (Ry/bohr**3)                   (kbar)     P=   -2.47
  -0.00002511   0.00000003   0.00000000         -3.69      0.00      0.00
   0.00000003  -0.00002523   0.00000000          0.00     -3.71      0.00
   0.00000000   0.00000000  -0.00000005          0.00      0.00     -0.01


     number of scf cycles    =   8
     number of bfgs steps    =   7

     enthalpy old            =     -31.6839899299 Ry
     enthalpy new            =     -31.6867655222 Ry

     CASE: enthalpy_new < enthalpy_old

     new trust radius        =       0.1812538904 bohr
     new conv_thr            =       0.0000010000 Ry

     new unit-cell volume =   8837.96332 a.u.^3 (  1309.65103 Ang^3 )
     density =      0.26610 g/cm^3

CELL_PARAMETERS (alat= 16.84048341)
   0.975758725   0.000018241   0.000000000
  -0.487863565   0.845020203   0.000000000
   0.000000000   0.000000000   2.244265901

ATOMIC_POSITIONS (angstrom)
Al      -0.000374840   2.510032973   0.000000000
Al       2.174073338   1.255113377   0.000000000
Al       4.348087261   2.510181486   0.000000000
Al       6.521657753   0.981412603   0.000000000
Al      -2.173940840   6.275115193   0.000000000
Al       0.237095401   5.157863823   0.000000000
Al       4.111278127   5.157628494   0.000000000



     Writing output data file 7al_planar_2x2_vcr.save/
     NEW-OLD atomic charge density approx. for the potential

     negative rho (up, down):  1.303E-05 0.000E+00
     extrapolated charge   20.60376, renormalised to   21.00000

     total cpu time spent up to now is      187.6 secs

     Self-consistent Calculation

     iteration #  1     ecut=    80.00 Ry     beta= 0.40
     Davidson diagonalization with overlap
     ethr =  1.00E-06,  avg # of iterations =  9.0

     negative rho (up, down):  7.796E-06 0.000E+00

     total cpu time spent up to now is      189.3 secs

     total energy              =     -31.67437304 Ry
     Harris-Foulkes estimate   =     -33.53368532 Ry
     estimated scf accuracy    <       0.01686261 Ry

     iteration #  2     ecut=    80.00 Ry     beta= 0.40
     Davidson diagonalization with overlap
     ethr =  8.03E-05,  avg # of iterations =  5.0

     negative rho (up, down):  6.500E-06 0.000E+00

     total cpu time spent up to now is      190.3 secs

     total energy              =     -31.68742236 Ry
     Harris-Foulkes estimate   =     -31.69926355 Ry
     estimated scf accuracy    <       0.05925951 Ry

     iteration #  3     ecut=    80.00 Ry     beta= 0.40
     Davidson diagonalization with overlap
     ethr =  8.03E-05,  avg # of iterations =  2.0

     negative rho (up, down):  5.293E-06 0.000E+00

     total cpu time spent up to now is      191.1 secs

     total energy              =     -31.69002360 Ry
     Harris-Foulkes estimate   =     -31.69088994 Ry
     estimated scf accuracy    <       0.00829871 Ry

     iteration #  4     ecut=    80.00 Ry     beta= 0.40
     Davidson diagonalization with overlap
     ethr =  3.95E-05,  avg # of iterations =  1.0

     negative rho (up, down):  1.491E-06 0.000E+00

     total cpu time spent up to now is      191.9 secs

     total energy              =     -31.68885443 Ry
     Harris-Foulkes estimate   =     -31.69021677 Ry
     estimated scf accuracy    <       0.00454622 Ry

     iteration #  5     ecut=    80.00 Ry     beta= 0.40
     Davidson diagonalization with overlap
     ethr =  2.16E-05,  avg # of iterations =  4.0

     negative rho (up, down):  1.414E-06 0.000E+00

     total cpu time spent up to now is      192.7 secs

     total energy              =     -31.68987170 Ry
     Harris-Foulkes estimate   =     -31.68989294 Ry
     estimated scf accuracy    <       0.00032600 Ry

     iteration #  6     ecut=    80.00 Ry     beta= 0.40
     Davidson diagonalization with overlap
     ethr =  1.55E-06,  avg # of iterations =  3.0

     negative rho (up, down):  1.430E-06 0.000E+00

     total cpu time spent up to now is      193.7 secs

     total energy              =     -31.68990892 Ry
     Harris-Foulkes estimate   =     -31.68994921 Ry
     estimated scf accuracy    <       0.00036347 Ry

     iteration #  7     ecut=    80.00 Ry     beta= 0.40
     Davidson diagonalization with overlap
     ethr =  1.55E-06,  avg # of iterations =  1.0

     negative rho (up, down):  2.014E-08 0.000E+00

     total cpu time spent up to now is      194.4 secs

     total energy              =     -31.68976651 Ry
     Harris-Foulkes estimate   =     -31.68991600 Ry
     estimated scf accuracy    <       0.00025070 Ry

     iteration #  8     ecut=    80.00 Ry     beta= 0.40
     Davidson diagonalization with overlap
     ethr =  1.19E-06,  avg # of iterations =  5.0

     negative rho (up, down):  4.699E-08 0.000E+00

     total cpu time spent up to now is      195.5 secs

     total energy              =     -31.68985532 Ry
     Harris-Foulkes estimate   =     -31.68999114 Ry
     estimated scf accuracy    <       0.00060058 Ry

     iteration #  9     ecut=    80.00 Ry     beta= 0.40
     Davidson diagonalization with overlap
     ethr =  1.19E-06,  avg # of iterations =  3.0

     negative rho (up, down):  2.224E-08 0.000E+00

     total cpu time spent up to now is      196.3 secs

     total energy              =     -31.68985894 Ry
     Harris-Foulkes estimate   =     -31.68988693 Ry
     estimated scf accuracy    <       0.00012304 Ry

     iteration # 10     ecut=    80.00 Ry     beta= 0.40
     Davidson diagonalization with overlap
     ethr =  5.86E-07,  avg # of iterations =  2.0

     negative rho (up, down):  3.914E-08 0.000E+00

     total cpu time spent up to now is      197.1 secs

     total energy              =     -31.68986152 Ry
     Harris-Foulkes estimate   =     -31.68986910 Ry
     estimated scf accuracy    <       0.00002256 Ry

     iteration # 11     ecut=    80.00 Ry     beta= 0.40
     Davidson diagonalization with overlap
     ethr =  1.07E-07,  avg # of iterations =  5.0

     total cpu time spent up to now is      198.2 secs

     total energy              =     -31.68987205 Ry
     Harris-Foulkes estimate   =     -31.68987765 Ry
     estimated scf accuracy    <       0.00001848 Ry

     iteration # 12     ecut=    80.00 Ry     beta= 0.40
     Davidson diagonalization with overlap
     ethr =  8.80E-08,  avg # of iterations =  2.0

     total cpu time spent up to now is      199.1 secs

     total energy              =     -31.68987241 Ry
     Harris-Foulkes estimate   =     -31.68987355 Ry
     estimated scf accuracy    <       0.00000266 Ry

     iteration # 13     ecut=    80.00 Ry     beta= 0.40
     Davidson diagonalization with overlap
     ethr =  1.26E-08,  avg # of iterations =  5.0

     total cpu time spent up to now is      200.2 secs

     total energy              =     -31.68987347 Ry
     Harris-Foulkes estimate   =     -31.68987386 Ry
     estimated scf accuracy    <       0.00000274 Ry

     iteration # 14     ecut=    80.00 Ry     beta= 0.40
     Davidson diagonalization with overlap
     ethr =  1.26E-08,  avg # of iterations =  1.0

     total cpu time spent up to now is      200.9 secs

     End of self-consistent calculation

          k = 0.0000 0.0000 0.0000 (111965 PWs)   bands (ev):

    -9.6437  -7.8612  -7.8599  -7.4279  -6.6165  -6.6154  -4.9340  -3.7885
    -2.9728  -2.5067  -2.5063  -2.0550  -2.0541  -1.6658  -0.9076

     the Fermi energy is    -2.3964 ev

!    total energy              =     -31.68987326 Ry
     Harris-Foulkes estimate   =     -31.68987357 Ry
     estimated scf accuracy    <       0.00000071 Ry

     The total energy is the sum of the following terms:

     one-electron contribution =    -107.29421160 Ry
     hartree contribution      =      55.75205755 Ry
     xc contribution           =     -13.72337294 Ry
     ewald contribution        =      33.60113998 Ry
     smearing contrib. (-TS)   =      -0.02548624 Ry

     convergence has been achieved in  14 iterations

     Forces acting on atoms (cartesian axes, Ry/au):

     atom    1 type  1   force =    -0.01664948    0.00954883    0.00000000
     atom    2 type  1   force =    -0.00002996    0.00000816    0.00000000
     atom    3 type  1   force =     0.01662184    0.00959077    0.00000000
     atom    4 type  1   force =     0.00007307    0.00666318    0.00000000
     atom    5 type  1   force =    -0.00005030   -0.01916332    0.00000000
     atom    6 type  1   force =    -0.00574422   -0.00335682    0.00000000
     atom    7 type  1   force =     0.00577906   -0.00329080    0.00000000

     Total force =     0.035168     Total SCF correction =     0.000409


     Computing stress (Cartesian axis) and pressure

          total   stress  (Ry/bohr**3)                   (kbar)     P=   -2.93
  -0.00002977   0.00000005   0.00000000         -4.38      0.01      0.00
   0.00000005  -0.00002995   0.00000000          0.01     -4.41      0.00
   0.00000000   0.00000000  -0.00000010          0.00      0.00     -0.02


     number of scf cycles    =   9
     number of bfgs steps    =   8

     enthalpy old            =     -31.6867655222 Ry
     enthalpy new            =     -31.6898732618 Ry

     CASE: enthalpy_new < enthalpy_old

     new trust radius        =       0.2661172898 bohr
     new conv_thr            =       0.0000010000 Ry

     new unit-cell volume =   8589.64432 a.u.^3 (  1272.85395 Ang^3 )
     density =      0.27380 g/cm^3

CELL_PARAMETERS (alat= 16.84048341)
   0.961958138   0.000030631   0.000000000
  -0.480952542   0.833053803   0.000000000
   0.000000000   0.000000000   2.244265901

ATOMIC_POSITIONS (angstrom)
Al      -0.016942893   2.483796223   0.000000000
Al       2.143395990   1.237357357   0.000000000
Al       4.303097646   2.484081888   0.000000000
Al       6.429444327   0.837511452   0.000000000
Al      -2.143265841   6.167221093   0.000000000
Al       0.346394230   5.150187366   0.000000000
Al       3.940828711   5.149864087   0.000000000



     Writing output data file 7al_planar_2x2_vcr.save/
     NEW-OLD atomic charge density approx. for the potential

     negative rho (up, down):  1.768E-05 0.000E+00
     extrapolated charge   20.39340, renormalised to   21.00000

     total cpu time spent up to now is      214.6 secs

     Self-consistent Calculation

     iteration #  1     ecut=    80.00 Ry     beta= 0.40
     Davidson diagonalization with overlap
     ethr =  1.00E-06,  avg # of iterations = 11.0

     negative rho (up, down):  1.081E-05 0.000E+00

     total cpu time spent up to now is      216.4 secs

     total energy              =     -31.66100237 Ry
     Harris-Foulkes estimate   =     -34.57768275 Ry
     estimated scf accuracy    <       0.03337723 Ry

     iteration #  2     ecut=    80.00 Ry     beta= 0.40
     Davidson diagonalization with overlap
     ethr =  1.59E-04,  avg # of iterations =  4.0

     negative rho (up, down):  9.110E-06 0.000E+00

     total cpu time spent up to now is      217.4 secs

     total energy              =     -31.68891859 Ry
     Harris-Foulkes estimate   =     -31.71142998 Ry
     estimated scf accuracy    <       0.11236194 Ry

     iteration #  3     ecut=    80.00 Ry     beta= 0.40
     Davidson diagonalization with overlap
     ethr =  1.59E-04,  avg # of iterations =  2.0

     negative rho (up, down):  7.453E-06 0.000E+00

     total cpu time spent up to now is      218.1 secs

     total energy              =     -31.69364453 Ry
     Harris-Foulkes estimate   =     -31.69539916 Ry
     estimated scf accuracy    <       0.01723417 Ry

     iteration #  4     ecut=    80.00 Ry     beta= 0.40
     Davidson diagonalization with overlap
     ethr =  8.21E-05,  avg # of iterations =  1.0

     negative rho (up, down):  3.013E-06 0.000E+00

     total cpu time spent up to now is      218.9 secs

     total energy              =     -31.69151114 Ry
     Harris-Foulkes estimate   =     -31.69403806 Ry
     estimated scf accuracy    <       0.00980898 Ry

     iteration #  5     ecut=    80.00 Ry     beta= 0.40
     Davidson diagonalization with overlap
     ethr =  4.67E-05,  avg # of iterations =  4.0

     negative rho (up, down):  2.482E-06 0.000E+00

     total cpu time spent up to now is      219.7 secs

     total energy              =     -31.69309397 Ry
     Harris-Foulkes estimate   =     -31.69319621 Ry
     estimated scf accuracy    <       0.00063759 Ry

     iteration #  6     ecut=    80.00 Ry     beta= 0.40
     Davidson diagonalization with overlap
     ethr =  3.04E-06,  avg # of iterations =  4.0

     negative rho (up, down):  1.226E-06 0.000E+00

     total cpu time spent up to now is      220.7 secs

     total energy              =     -31.69314585 Ry
     Harris-Foulkes estimate   =     -31.69323478 Ry
     estimated scf accuracy    <       0.00029544 Ry

     iteration #  7     ecut=    80.00 Ry     beta= 0.40
     Davidson diagonalization with overlap
     ethr =  1.41E-06,  avg # of iterations =  5.0

     negative rho (up, down):  1.698E-07 0.000E+00

     total cpu time spent up to now is      221.7 secs

     total energy              =     -31.69305814 Ry
     Harris-Foulkes estimate   =     -31.69328821 Ry
     estimated scf accuracy    <       0.00055142 Ry

     iteration #  8     ecut=    80.00 Ry     beta= 0.40
     Davidson diagonalization with overlap
     ethr =  1.41E-06,  avg # of iterations =  5.0

     negative rho (up, down):  5.485E-08 0.000E+00

     total cpu time spent up to now is      222.7 secs

     total energy              =     -31.69321641 Ry
     Harris-Foulkes estimate   =     -31.69323501 Ry
     estimated scf accuracy    <       0.00017458 Ry

     iteration #  9     ecut=    80.00 Ry     beta= 0.40
     Davidson diagonalization with overlap
     ethr =  8.31E-07,  avg # of iterations =  1.0

     negative rho (up, down):  1.818E-08 0.000E+00

     total cpu time spent up to now is      223.5 secs

     total energy              =     -31.69317758 Ry
     Harris-Foulkes estimate   =     -31.69321950 Ry
     estimated scf accuracy    <       0.00011326 Ry

     iteration # 10     ecut=    80.00 Ry     beta= 0.40
     Davidson diagonalization with overlap
     ethr =  5.39E-07,  avg # of iterations =  4.0

     total cpu time spent up to now is      224.3 secs

     total energy              =     -31.69319857 Ry
     Harris-Foulkes estimate   =     -31.69319978 Ry
     estimated scf accuracy    <       0.00000453 Ry

     iteration # 11     ecut=    80.00 Ry     beta= 0.40
     Davidson diagonalization with overlap
     ethr =  2.15E-08,  avg # of iterations =  3.0

     total cpu time spent up to now is      225.3 secs

     End of self-consistent calculation

          k = 0.0000 0.0000 0.0000 (111965 PWs)   bands (ev):

    -9.6877  -7.7695  -7.7675  -7.4592  -6.6438  -6.6419  -5.3311  -3.8168
    -2.7887  -2.3802  -2.3798  -1.9657  -1.9644  -1.6917  -0.9055

     the Fermi energy is    -2.2829 ev

!    total energy              =     -31.69319931 Ry
     Harris-Foulkes estimate   =     -31.69319997 Ry
     estimated scf accuracy    <       0.00000091 Ry

     The total energy is the sum of the following terms:

     one-electron contribution =    -109.76789215 Ry
     hartree contribution      =      56.99520605 Ry
     xc contribution           =     -13.72300527 Ry
     ewald contribution        =      34.83506110 Ry
     smearing contrib. (-TS)   =      -0.03256904 Ry

     convergence has been achieved in  11 iterations

     Forces acting on atoms (cartesian axes, Ry/au):

     atom    1 type  1   force =    -0.02062507    0.01184847    0.00000000
     atom    2 type  1   force =    -0.00008944   -0.00004601    0.00000000
     atom    3 type  1   force =     0.02059806    0.01189864    0.00000000
     atom    4 type  1   force =     0.00014966    0.01231777    0.00000000
     atom    5 type  1   force =    -0.00007051   -0.02378828    0.00000000
     atom    6 type  1   force =    -0.01076127   -0.00619236    0.00000000
     atom    7 type  1   force =     0.01079856   -0.00603823    0.00000000

     Total force =     0.046438     Total SCF correction =     0.000635


     Computing stress (Cartesian axis) and pressure

          total   stress  (Ry/bohr**3)                   (kbar)     P=   -3.49
  -0.00003544   0.00000009   0.00000000         -5.21      0.01      0.00
   0.00000009  -0.00003573   0.00000000          0.01     -5.26      0.00
   0.00000000   0.00000000   0.00000001          0.00      0.00      0.00


     number of scf cycles    =  10
     number of bfgs steps    =   9

     enthalpy old            =     -31.6898732618 Ry
     enthalpy new            =     -31.6931993093 Ry

     CASE: enthalpy_new < enthalpy_old

     new trust radius        =       0.3300224670 bohr
     new conv_thr            =       0.0000010000 Ry

     new unit-cell volume =   8286.67297 a.u.^3 (  1227.95823 Ang^3 )
     density =      0.28381 g/cm^3

CELL_PARAMETERS (alat= 16.84048341)
   0.944850676   0.000048573   0.000000000
  -0.472383274   0.818212594   0.000000000
   0.000000000   0.000000000   2.244265901

ATOMIC_POSITIONS (angstrom)
Al      -0.044840747   2.455496719   0.000000000
Al       2.105311977   1.215294685   0.000000000
Al       4.254700700   2.455995059   0.000000000
Al       6.315220411   0.679283256   0.000000000
Al      -2.105262217   6.024891711   0.000000000
Al       0.464355558   5.130551913   0.000000000
Al       3.747105780   5.130214267   0.000000000



     Writing output data file 7al_planar_2x2_vcr.save/
     NEW-OLD atomic charge density approx. for the potential

     negative rho (up, down):  1.549E-05 0.000E+00
     extrapolated charge   20.23284, renormalised to   21.00000

     total cpu time spent up to now is      239.0 secs

     Self-consistent Calculation

     iteration #  1     ecut=    80.00 Ry     beta= 0.40
     Davidson diagonalization with overlap
     ethr =  1.00E-06,  avg # of iterations = 12.0

     negative rho (up, down):  9.596E-06 0.000E+00

     total cpu time spent up to now is      240.9 secs

     total energy              =     -31.65259636 Ry
     Harris-Foulkes estimate   =     -35.46092240 Ry
     estimated scf accuracy    <       0.04383036 Ry

     iteration #  2     ecut=    80.00 Ry     beta= 0.40
     Davidson diagonalization with overlap
     ethr =  2.09E-04,  avg # of iterations =  4.0

     negative rho (up, down):  7.950E-06 0.000E+00

     total cpu time spent up to now is      241.9 secs

     total energy              =     -31.69458315 Ry
     Harris-Foulkes estimate   =     -31.71818626 Ry
     estimated scf accuracy    <       0.11407129 Ry

     iteration #  3     ecut=    80.00 Ry     beta= 0.40
     Davidson diagonalization with overlap
     ethr =  2.09E-04,  avg # of iterations =  2.0

     negative rho (up, down):  6.426E-06 0.000E+00

     total cpu time spent up to now is      242.7 secs

     total energy              =     -31.69916492 Ry
     Harris-Foulkes estimate   =     -31.70123432 Ry
     estimated scf accuracy    <       0.02044959 Ry

     iteration #  4     ecut=    80.00 Ry     beta= 0.40
     Davidson diagonalization with overlap
     ethr =  9.74E-05,  avg # of iterations =  1.0

     negative rho (up, down):  2.078E-06 0.000E+00

     total cpu time spent up to now is      243.4 secs

     total energy              =     -31.69584462 Ry
     Harris-Foulkes estimate   =     -31.69954682 Ry
     estimated scf accuracy    <       0.01251161 Ry

     iteration #  5     ecut=    80.00 Ry     beta= 0.40
     Davidson diagonalization with overlap
     ethr =  5.96E-05,  avg # of iterations =  4.0

     negative rho (up, down):  1.862E-06 0.000E+00

     total cpu time spent up to now is      244.3 secs

     total energy              =     -31.69777439 Ry
     Harris-Foulkes estimate   =     -31.69786435 Ry
     estimated scf accuracy    <       0.00048085 Ry

     iteration #  6     ecut=    80.00 Ry     beta= 0.40
     Davidson diagonalization with overlap
     ethr =  2.29E-06,  avg # of iterations =  4.0

     negative rho (up, down):  4.774E-07 0.000E+00

     total cpu time spent up to now is      245.2 secs

     total energy              =     -31.69785964 Ry
     Harris-Foulkes estimate   =     -31.69792808 Ry
     estimated scf accuracy    <       0.00028121 Ry

     iteration #  7     ecut=    80.00 Ry     beta= 0.40
     Davidson diagonalization with overlap
     ethr =  1.34E-06,  avg # of iterations =  4.0

     negative rho (up, down):  1.391E-07 0.000E+00

     total cpu time spent up to now is      246.1 secs

     total energy              =     -31.69785077 Ry
     Harris-Foulkes estimate   =     -31.69792019 Ry
     estimated scf accuracy    <       0.00016247 Ry

     iteration #  8     ecut=    80.00 Ry     beta= 0.40
     Davidson diagonalization with overlap
     ethr =  7.74E-07,  avg # of iterations =  5.0

     negative rho (up, down):  4.800E-08 0.000E+00

     total cpu time spent up to now is      247.1 secs

     total energy              =     -31.69789848 Ry
     Harris-Foulkes estimate   =     -31.69792698 Ry
     estimated scf accuracy    <       0.00014718 Ry

     iteration #  9     ecut=    80.00 Ry     beta= 0.40
     Davidson diagonalization with overlap
     ethr =  7.01E-07,  avg # of iterations =  1.0

     total cpu time spent up to now is      247.8 secs

     total energy              =     -31.69788079 Ry
[...]

     End of self-consistent calculation

          k = 0.0000 0.0000 0.0000 (111965 PWs)   bands (ev):

   -10.6676  -8.0357  -8.0116  -8.0020  -7.0701  -6.9056  -6.9018  -4.3668
    -2.0798  -1.9935  -1.9723  -1.8363  -1.8269  -1.8165  -0.9549

     the Fermi energy is    -1.9865 ev

!    total energy              =     -31.73649998 Ry
     Harris-Foulkes estimate   =     -31.73650010 Ry
     estimated scf accuracy    <       0.00000021 Ry

     The total energy is the sum of the following terms:

     one-electron contribution =    -131.61909915 Ry
     hartree contribution      =      67.85913306 Ry
     xc contribution           =     -14.01556310 Ry
     ewald contribution        =      46.11104094 Ry
     smearing contrib. (-TS)   =      -0.07201172 Ry

     convergence has been achieved in   4 iterations

     Forces acting on atoms (cartesian axes, Ry/au):

     atom    1 type  1   force =     0.00213283   -0.00109208    0.00000000
     atom    2 type  1   force =     0.00065096    0.00028049    0.00000000
     atom    3 type  1   force =    -0.00309656   -0.00171207    0.00000000
     atom    4 type  1   force =     0.00068598    0.00424871    0.00000000
     atom    5 type  1   force =     0.00006012    0.00253929    0.00000000
     atom    6 type  1   force =    -0.00440014   -0.00265273    0.00000000
     atom    7 type  1   force =     0.00396681   -0.00161161    0.00000000

     Total force =     0.009406     Total SCF correction =     0.000362


     Computing stress (Cartesian axis) and pressure

          total   stress  (Ry/bohr**3)                   (kbar)     P=   -0.15
   0.00000023   0.00000378   0.00000000          0.03      0.56      0.00
   0.00000378  -0.00000318   0.00000000          0.56     -0.47      0.00
   0.00000000   0.00000000  -0.00000003          0.00      0.00     -0.00


     number of scf cycles    = 297
     number of bfgs steps    =  23

     enthalpy old            =     -31.7370989249 Ry
     enthalpy new            =     -31.7364999768 Ry

     CASE: enthalpy_new > enthalpy_old

     new trust radius        =       0.0001028280 bohr
     new conv_thr            =       0.0000002992 Ry

     new unit-cell volume =   7083.44038 a.u.^3 (  1049.65755 Ang^3 )
     density =      0.33202 g/cm^3

CELL_PARAMETERS (alat= 16.84048341)
   0.873890112   0.000725033   0.000000000
  -0.436317127   0.755860244   0.000000000
   0.000000000   0.000000000   2.244265901

ATOMIC_POSITIONS (angstrom)
Al      -0.263665885   2.399100544   0.000000000
Al       1.949682164   1.125694827   0.000000000
Al       4.159021321   2.401278670   0.000000000
Al       5.842812487   0.451845766   0.000000000
Al      -1.942650240   5.308367749   0.000000000
Al       0.589483145   4.830851142   0.000000000
Al       3.311777412   4.835075507   0.000000000



     Writing output data file 7al_planar_2x2_vcr.save/
     NEW-OLD atomic charge density approx. for the potential

     negative rho (up, down):  9.443E-08 0.000E+00
     extrapolated charge   21.00124, renormalised to   21.00000

     total cpu time spent up to now is     5638.5 secs

     Self-consistent Calculation

     iteration #  1     ecut=    80.00 Ry     beta= 0.40
     Davidson diagonalization with overlap
     ethr =  1.00E-06,  avg # of iterations =  2.0

     Threshold (ethr) on eigenvalues was too large:
     Diagonalizing with lowered threshold

     Davidson diagonalization with overlap
     ethr =  9.19E-08,  avg # of iterations =  4.0

     negative rho (up, down):  4.817E-08 0.000E+00

     total cpu time spent up to now is     5640.2 secs

     total energy              =     -31.73643315 Ry
     Harris-Foulkes estimate   =     -31.72924394 Ry
     estimated scf accuracy    <       0.00002969 Ry

     iteration #  2     ecut=    80.00 Ry     beta= 0.40
     Davidson diagonalization with overlap
     ethr =  1.41E-07,  avg # of iterations =  3.0

     negative rho (up, down):  3.486E-08 0.000E+00

     total cpu time spent up to now is     5641.1 secs

     total energy              =     -31.73643946 Ry
     Harris-Foulkes estimate   =     -31.73644655 Ry
     estimated scf accuracy    <       0.00002260 Ry

     iteration #  3     ecut=    80.00 Ry     beta= 0.40
     Davidson diagonalization with overlap
     ethr =  1.08E-07,  avg # of iterations =  2.0

     negative rho (up, down):  2.123E-08 0.000E+00

     total cpu time spent up to now is     5641.9 secs

     total energy              =     -31.73644256 Ry
     Harris-Foulkes estimate   =     -31.73644265 Ry
     estimated scf accuracy    <       0.00000032 Ry

     iteration #  4     ecut=    80.00 Ry     beta= 0.40
     Davidson diagonalization with overlap
     ethr =  1.54E-09,  avg # of iterations =  5.0

     total cpu time spent up to now is     5643.0 secs

     End of self-consistent calculation

          k = 0.0000 0.0000 0.0000 (111965 PWs)   bands (ev):

   -10.6690  -8.0402  -8.0109  -8.0021  -7.0716  -6.9056  -6.9022  -4.3675
    -2.0777  -1.9937  -1.9752  -1.8353  -1.8269  -1.8191  -0.9620

     the Fermi energy is    -1.9869 ev

!    total energy              =     -31.73644276 Ry
     Harris-Foulkes estimate   =     -31.73644289 Ry
     estimated scf accuracy    <       0.00000021 Ry

     The total energy is the sum of the following terms:

     one-electron contribution =    -131.60997448 Ry
     hartree contribution      =      67.85422838 Ry
     xc contribution           =     -14.01498920 Ry
     ewald contribution        =      46.10630367 Ry
     smearing contrib. (-TS)   =      -0.07201112 Ry

     convergence has been achieved in   4 iterations

     Forces acting on atoms (cartesian axes, Ry/au):

     atom    1 type  1   force =     0.00229837   -0.00117519    0.00000000
     atom    2 type  1   force =     0.00059122    0.00024756    0.00000000
     atom    3 type  1   force =    -0.00317222   -0.00173772    0.00000000
     atom    4 type  1   force =     0.00063099    0.00447299    0.00000000
     atom    5 type  1   force =     0.00005929    0.00272133    0.00000000
     atom    6 type  1   force =    -0.00456010   -0.00274569    0.00000000
     atom    7 type  1   force =     0.00415246   -0.00178328    0.00000000

     Total force =     0.009835     Total SCF correction =     0.000370


     Computing stress (Cartesian axis) and pressure

          total   stress  (Ry/bohr**3)                   (kbar)     P=   -0.18
  -0.00000028   0.00000337   0.00000000         -0.04      0.50      0.00
   0.00000337  -0.00000334   0.00000000          0.50     -0.49      0.00
   0.00000000   0.00000000   0.00000004          0.00      0.00      0.01


     number of scf cycles    = 298
     number of bfgs steps    =  23

     enthalpy old            =     -31.7370989249 Ry
     enthalpy new            =     -31.7364427560 Ry

     CASE: enthalpy_new > enthalpy_old

     new trust radius        =       0.0000000853 bohr

     trust_radius < trust_radius_min

     resetting bfgs history

     new conv_thr            =       0.0000002992 Ry

     new unit-cell volume =   7083.02203 a.u.^3 (  1049.59556 Ang^3 )
     density =      0.33204 g/cm^3

CELL_PARAMETERS (alat= 16.84048341)
   0.873896861   0.000796455   0.000000000
  -0.436258649   0.755774138   0.000000000
   0.000000000   0.000000000   2.244265901

ATOMIC_POSITIONS (angstrom)
Al      -0.263099915   2.398798560   0.000000000
Al       1.950056070   1.125888249   0.000000000
Al       4.158446997   2.401042076   0.000000000
Al       5.843227024   0.453650241   0.000000000
Al      -1.942184167   5.308309698   0.000000000
Al       0.588345679   4.829631582   0.000000000
Al       3.313519462   4.834585513   0.000000000



     Writing output data file 7al_planar_2x2_vcr.save/
     NEW-OLD atomic charge density approx. for the potential

     negative rho (up, down):  9.465E-08 0.000E+00
     extrapolated charge   20.99876, renormalised to   21.00000

     total cpu time spent up to now is     5656.8 secs

     Self-consistent Calculation

     iteration #  1     ecut=    80.00 Ry     beta= 0.40
     Davidson diagonalization with overlap
     ethr =  1.00E-06,  avg # of iterations =  2.0

     Threshold (ethr) on eigenvalues was too large:
     Diagonalizing with lowered threshold

     Davidson diagonalization with overlap
     ethr =  9.28E-08,  avg # of iterations =  4.0

     negative rho (up, down):  4.825E-08 0.000E+00

     total cpu time spent up to now is     5658.4 secs

     total energy              =     -31.73649025 Ry
     Harris-Foulkes estimate   =     -31.74370973 Ry
     estimated scf accuracy    <       0.00002994 Ry

     iteration #  2     ecut=    80.00 Ry     beta= 0.40
     Davidson diagonalization with overlap
     ethr =  1.43E-07,  avg # of iterations =  3.0

     negative rho (up, down):  3.489E-08 0.000E+00

     total cpu time spent up to now is     5659.3 secs

     total energy              =     -31.73649665 Ry
     Harris-Foulkes estimate   =     -31.73650377 Ry
     estimated scf accuracy    <       0.00002279 Ry

     iteration #  3     ecut=    80.00 Ry     beta= 0.40
     Davidson diagonalization with overlap
     ethr =  1.09E-07,  avg # of iterations =  2.0

     negative rho (up, down):  2.131E-08 0.000E+00

     total cpu time spent up to now is     5660.1 secs

     total energy              =     -31.73649977 Ry
     Harris-Foulkes estimate   =     -31.73649986 Ry
     estimated scf accuracy    <       0.00000033 Ry

     iteration #  4     ecut=    80.00 Ry     beta= 0.40
     Davidson diagonalization with overlap
     ethr =  1.56E-09,  avg # of iterations =  5.0

     total cpu time spent up to now is     5661.3 secs

     End of self-consistent calculation

          k = 0.0000 0.0000 0.0000 (111965 PWs)   bands (ev):

   -10.6676  -8.0357  -8.0116  -8.0020  -7.0701  -6.9056  -6.9018  -4.3668
    -2.0798  -1.9935  -1.9723  -1.8363  -1.8269  -1.8165  -0.9549

     the Fermi energy is    -1.9865 ev

!    total energy              =     -31.73649998 Ry
     Harris-Foulkes estimate   =     -31.73650010 Ry
     estimated scf accuracy    <       0.00000021 Ry

     The total energy is the sum of the following terms:

     one-electron contribution =    -131.61911001 Ry
     hartree contribution      =      67.85914538 Ry
     xc contribution           =     -14.01556455 Ry
     ewald contribution        =      46.11104094 Ry
     smearing contrib. (-TS)   =      -0.07201173 Ry

     convergence has been achieved in   4 iterations

     Forces acting on atoms (cartesian axes, Ry/au):

     atom    1 type  1   force =     0.00213368   -0.00109127    0.00000000
     atom    2 type  1   force =     0.00064960    0.00027983    0.00000000
     atom    3 type  1   force =    -0.00309560   -0.00171178    0.00000000
     atom    4 type  1   force =     0.00068444    0.00424990    0.00000000
     atom    5 type  1   force =     0.00006155    0.00253933    0.00000000
     atom    6 type  1   force =    -0.00440063   -0.00265262    0.00000000
     atom    7 type  1   force =     0.00396695   -0.00161338    0.00000000

     Total force =     0.009406     Total SCF correction =     0.000363


     Computing stress (Cartesian axis) and pressure

          total   stress  (Ry/bohr**3)                   (kbar)     P=   -0.15
   0.00000023   0.00000378   0.00000000          0.03      0.56      0.00
   0.00000378  -0.00000318   0.00000000          0.56     -0.47      0.00
   0.00000000   0.00000000  -0.00000003          0.00      0.00     -0.00


     number of scf cycles    = 299
     number of bfgs steps    =  23

     enthalpy old            =     -31.7370989249 Ry
     enthalpy new            =     -31.7364999767 Ry

     CASE: enthalpy_new > enthalpy_old

     new trust radius        =       0.0001028280 bohr
     new conv_thr            =       0.0000002992 Ry

     new unit-cell volume =   7083.44038 a.u.^3 (  1049.65755 Ang^3 )
     density =      0.33202 g/cm^3

CELL_PARAMETERS (alat= 16.84048341)
   0.873890112   0.000725033   0.000000000
  -0.436317127   0.755860244   0.000000000
   0.000000000   0.000000000   2.244265901

ATOMIC_POSITIONS (angstrom)
Al      -0.263665885   2.399100544   0.000000000
Al       1.949682164   1.125694827   0.000000000
Al       4.159021321   2.401278670   0.000000000
Al       5.842812487   0.451845766   0.000000000
Al      -1.942650240   5.308367749   0.000000000
Al       0.589483145   4.830851142   0.000000000
Al       3.311777412   4.835075507   0.000000000



     Writing output data file 7al_planar_2x2_vcr.save/
     NEW-OLD atomic charge density approx. for the potential

     negative rho (up, down):  9.445E-08 0.000E+00
     extrapolated charge   21.00124, renormalised to   21.00000

     total cpu time spent up to now is     5675.1 secs

     Self-consistent Calculation

     iteration #  1     ecut=    80.00 Ry     beta= 0.40
     Davidson diagonalization with overlap
     ethr =  1.00E-06,  avg # of iterations =  2.0

     Threshold (ethr) on eigenvalues was too large:
     Diagonalizing with lowered threshold

     Davidson diagonalization with overlap
     ethr =  9.19E-08,  avg # of iterations =  4.0

     negative rho (up, down):  4.817E-08 0.000E+00

     total cpu time spent up to now is     5676.7 secs

     total energy              =     -31.73643313 Ry
     Harris-Foulkes estimate   =     -31.72924394 Ry
     estimated scf accuracy    <       0.00002972 Ry

     iteration #  2     ecut=    80.00 Ry     beta= 0.40
     Davidson diagonalization with overlap
     ethr =  1.42E-07,  avg # of iterations =  3.0

     negative rho (up, down):  3.486E-08 0.000E+00

     total cpu time spent up to now is     5677.6 secs

     total energy              =     -31.73643946 Ry
     Harris-Foulkes estimate   =     -31.73644655 Ry
     estimated scf accuracy    <       0.00002265 Ry

     iteration #  3     ecut=    80.00 Ry     beta= 0.40
     Davidson diagonalization with overlap
     ethr =  1.08E-07,  avg # of iterations =  2.0

     negative rho (up, down):  2.125E-08 0.000E+00

     total cpu time spent up to now is     5678.4 secs

     total energy              =     -31.73644256 Ry
     Harris-Foulkes estimate   =     -31.73644265 Ry
     estimated scf accuracy    <       0.00000032 Ry

     iteration #  4     ecut=    80.00 Ry     beta= 0.40
     Davidson diagonalization with overlap
     ethr =  1.54E-09,  avg # of iterations =  5.0

     total cpu time spent up to now is     5679.6 secs

     End of self-consistent calculation

          k = 0.0000 0.0000 0.0000 (111965 PWs)   bands (ev):

   -10.6690  -8.0401  -8.0109  -8.0021  -7.0716  -6.9056  -6.9022  -4.3675
    -2.0777  -1.9937  -1.9752  -1.8353  -1.8269  -1.8191  -0.9620

     the Fermi energy is    -1.9869 ev

!    total energy              =     -31.73644276 Ry
     Harris-Foulkes estimate   =     -31.73644289 Ry
     estimated scf accuracy    <       0.00000021 Ry

     The total energy is the sum of the following terms:

     one-electron contribution =    -131.60996912 Ry
     hartree contribution      =      67.85422205 Ry
     xc contribution           =     -14.01498824 Ry
     ewald contribution        =      46.10630367 Ry
     smearing contrib. (-TS)   =      -0.07201111 Ry

     convergence has been achieved in   4 iterations

     Forces acting on atoms (cartesian axes, Ry/au):

     atom    1 type  1   force =     0.00229837   -0.00117538    0.00000000
     atom    2 type  1   force =     0.00059049    0.00024783    0.00000000
     atom    3 type  1   force =    -0.00317189   -0.00173795    0.00000000
     atom    4 type  1   force =     0.00063107    0.00447282    0.00000000
     atom    5 type  1   force =     0.00005920    0.00272126    0.00000000
     atom    6 type  1   force =    -0.00455978   -0.00274516    0.00000000
     atom    7 type  1   force =     0.00415253   -0.00178343    0.00000000

     Total force =     0.009835     Total SCF correction =     0.000368


     Computing stress (Cartesian axis) and pressure

          total   stress  (Ry/bohr**3)                   (kbar)     P=   -0.18
  -0.00000028   0.00000337   0.00000000         -0.04      0.50      0.00
   0.00000337  -0.00000334   0.00000000          0.50     -0.49      0.00
   0.00000000   0.00000000   0.00000004          0.00      0.00      0.01


     number of scf cycles    = 300
     number of bfgs steps    =  23

     enthalpy old            =     -31.7370989249 Ry
     enthalpy new            =     -31.7364427569 Ry

     CASE: enthalpy_new > enthalpy_old

     new trust radius        =       0.0000000853 bohr

     trust_radius < trust_radius_min

     resetting bfgs history

     new conv_thr            =       0.0000002992 Ry

     new unit-cell volume =   7083.02203 a.u.^3 (  1049.59556 Ang^3 )
     density =      0.33204 g/cm^3

CELL_PARAMETERS (alat= 16.84048341)
   0.873896861   0.000796455   0.000000000
  -0.436258649   0.755774138   0.000000000
   0.000000000   0.000000000   2.244265901

ATOMIC_POSITIONS (angstrom)
Al      -0.263099915   2.398798560   0.000000000
Al       1.950056070   1.125888249   0.000000000
Al       4.158446997   2.401042076   0.000000000
Al       5.843227024   0.453650241   0.000000000
Al      -1.942184167   5.308309698   0.000000000
Al       0.588345679   4.829631582   0.000000000
Al       3.313519462   4.834585513   0.000000000



     Writing output data file 7al_planar_2x2_vcr.save/
     NEW-OLD atomic charge density approx. for the potential

     negative rho (up, down):  9.464E-08 0.000E+00
     extrapolated charge   20.99876, renormalised to   21.00000

     Writing output data file 7al_planar_2x2_vcr.save/
 
     init_run     :      4.27s CPU      4.40s WALL (       1 calls)
     electrons    :   1492.52s CPU   1518.37s WALL (     300 calls)
     update_pot   :   1540.26s CPU   1545.47s WALL (     300 calls)
     forces       :    847.04s CPU    849.57s WALL (     300 calls)
     stress       :   1718.42s CPU   1738.41s WALL (     300 calls)

     Called by init_run:
     wfcinit      :      0.29s CPU      0.32s WALL (       1 calls)
     potinit      :      1.48s CPU      1.53s WALL (       1 calls)
     hinit0       :      2.24s CPU      2.28s WALL (       1 calls)

     Called by electrons:
     c_bands      :   1042.90s CPU   1053.25s WALL (    1641 calls)
     sum_band     :    183.37s CPU    186.20s WALL (    1641 calls)
     v_of_rho     :    273.49s CPU    276.19s WALL (    1668 calls)
     mix_rho      :     28.42s CPU     28.95s WALL (    1641 calls)

     Called by c_bands:
     init_us_2    :     30.88s CPU     31.11s WALL (    3283 calls)
     cegterg      :    805.10s CPU    813.73s WALL (    1641 calls)

     Called by sum_band:

     Called by *egterg:
     h_psi        :    706.63s CPU    714.69s WALL (    6922 calls)
     g_psi        :      4.54s CPU      4.57s WALL (    5280 calls)
     cdiaghg      :      3.72s CPU      3.77s WALL (    6348 calls)

     Called by h_psi:
     h_psi:pot    :    703.84s CPU    711.82s WALL (    6922 calls)
     h_psi:calbec :     83.85s CPU     84.44s WALL (    6922 calls)
     vloc_psi     :    523.12s CPU    530.16s WALL (    6922 calls)
     add_vuspsi   :     96.78s CPU     97.17s WALL (    6922 calls)

     General routines
     calbec       :    108.12s CPU    108.92s WALL (    8422 calls)
     fft          :    236.33s CPU    240.04s WALL (   24756 calls)
     ffts         :     11.63s CPU     11.85s WALL (    1641 calls)
     fftw         :    552.12s CPU    560.13s WALL (  161955 calls)
 
     Parallel routines
     fft_scatt_xy :    115.30s CPU    116.06s WALL (  188352 calls)
     fft_scatt_yz :    293.53s CPU    301.72s WALL (  188352 calls)
 
     PWSCF        :     1h33m CPU       33h 1m WALL

      34h
 
   This run was terminated on:  12:59:48  25Nov2020            

=------------------------------------------------------------------------------=
   JOB DONE.
=------------------------------------------------------------------------------=
