
     Program PWSCF v.6.3MaX starts on 25Nov2020 at 11:12:52 

     This program is part of the open-source Quantum ESPRESSO suite
     for quantum simulation of materials; please cite
         "P. Giannozzi et al., J. Phys.:Condens. Matter 21 395502 (2009);
         "P. Giannozzi et al., J. Phys.:Condens. Matter 29 465901 (2017);
          URL http://www.quantum-espresso.org", 
     in publications or presentations arising from this work. More details at
     http://www.quantum-espresso.org/quote

     Parallel version (MPI), running on     8 processors

     MPI processes distributed on     5 nodes
     R & G space division:  proc/nbgrp/npool/nimage =       8
     Waiting for input...
     Reading input from standard input

     Current dimensions of program PWSCF are:
     Max number of different atomic species (ntypx) = 10
     Max number of k-points (npk) =  40000
     Max angular momentum in pseudopotentials (lmaxx) =  3

     Subspace diagonalization in iterative solution of the eigenvalue problem:
     a serial algorithm will be used

     Message from routine find_sym:
     Not a group! Trying with lower acceptance parameter...
     Message from routine find_sym:
     Symmetry operations form a group
 
     Parallelization info
     --------------------
     sticks:   dense  smooth     PW     G-vecs:    dense   smooth      PW
     Min         778     778    194               112122   112122   13992
     Max         779     779    195               112130   112130   14001
     Sum        6229    6229   1555               896999   896999  111965
 


     bravais-lattice index     =            4
     lattice parameter (alat)  =      16.8405  a.u.
     unit-cell volume          =    9282.5779 (a.u.)^3
     number of atoms/cell      =            7
     number of atomic types    =            1
     number of electrons       =        21.00
     number of Kohn-Sham states=           15
     kinetic-energy cutoff     =      80.0000  Ry
     charge density cutoff     =     320.0000  Ry
     convergence threshold     =      1.0E-06
     mixing beta               =       0.4000
     number of iterations used =            8  plain     mixing
     Exchange-correlation      = PBE ( 1  4  3  4 0 0)
     nstep                     =          300


     celldm(1)=  16.840483  celldm(2)=   0.000000  celldm(3)=   2.244266
     celldm(4)=   0.000000  celldm(5)=   0.000000  celldm(6)=   0.000000

     crystal axes: (cart. coord. in units of alat)
               a(1) = (   1.000000   0.000000   0.000000 )  
               a(2) = (  -0.500000   0.866025   0.000000 )  
               a(3) = (   0.000000   0.000000   2.244266 )  

     reciprocal axes: (cart. coord. in units 2 pi/alat)
               b(1) = (  1.000000  0.577350  0.000000 )  
               b(2) = (  0.000000  1.154701  0.000000 )  
               b(3) = (  0.000000  0.000000  0.445580 )  


     PseudoPot. # 1 for Al read from file:
     ./Al.upf
     MD5 check sum: 4974d48a734c9d7d1eb6780a1419d19d
     Pseudo is Norm-conserving + core correction, Zval =  3.0
     Generated using ONCVPSP code by D. R. Hamann
     Using radial grid of 1876 points,  6 beta functions with: 
                l(1) =   0
                l(2) =   0
                l(3) =   1
                l(4) =   1
                l(5) =   2
                l(6) =   2

     atomic species   valence    mass     pseudopotential
        Al             3.00    29.98200     Al( 1.00)

      4 Sym. Ops. (no inversion) found ( 2 have fractional translation)



   Cartesian axes

     site n.     atom                  positions (alat units)
         1           Al  tau(   1) = (   0.0000001   0.2886786   0.0000000  )
         2           Al  tau(   2) = (   0.5000023   0.2886806   0.0000000  )
         3           Al  tau(   3) = (   0.7500053   0.1443413   0.0000000  )
         4           Al  tau(   4) = (  -0.2499995   0.7216943   0.0000000  )
         5           Al  tau(   5) = (   0.0000036   0.5773550   0.0000000  )
         6           Al  tau(   6) = (   0.2500029   0.7216963   0.0000000  )
         7           Al  tau(   7) = (   0.5000059   0.5773570   0.0000000  )

     number of k points=     1  Methfessel-Paxton smearing, width (Ry)=  0.0500
                       cart. coord. in units 2pi/alat
        k(    1) = (   0.0000000   0.0000000   0.0000000), wk =   2.0000000

     Dense  grid:   896999 G-vectors     FFT dimensions: (  96,  96, 216)

     Estimated max dynamical RAM per process >     127.42 MB

     Estimated total dynamical RAM >    1019.39 MB

     Initial potential from superposition of free atoms

     starting charge   20.98287, renormalised to   21.00000

     negative rho (up, down):  2.280E-05 0.000E+00
     Starting wfcs are   28 randomized atomic wfcs

     total cpu time spent up to now is        6.0 secs

     Self-consistent Calculation

     iteration #  1     ecut=    80.00 Ry     beta= 0.40
     Davidson diagonalization with overlap
     ethr =  1.00E-02,  avg # of iterations =  2.0

     total cpu time spent up to now is        7.9 secs

     total energy              =     -31.66571702 Ry
     Harris-Foulkes estimate   =     -31.75213462 Ry
     estimated scf accuracy    <       0.28955142 Ry

     iteration #  2     ecut=    80.00 Ry     beta= 0.40
     Davidson diagonalization with overlap
     ethr =  1.38E-03,  avg # of iterations =  2.0

     negative rho (up, down):  1.274E-07 0.000E+00

     total cpu time spent up to now is        9.1 secs

     total energy              =     -31.66521593 Ry
     Harris-Foulkes estimate   =     -31.68737000 Ry
     estimated scf accuracy    <       0.06454562 Ry

     iteration #  3     ecut=    80.00 Ry     beta= 0.40
     Davidson diagonalization with overlap
     ethr =  3.07E-04,  avg # of iterations =  2.0

     negative rho (up, down):  1.543E-06 0.000E+00

     total cpu time spent up to now is       10.3 secs

     total energy              =     -31.67542036 Ry
     Harris-Foulkes estimate   =     -31.67779966 Ry
     estimated scf accuracy    <       0.00942620 Ry

     iteration #  4     ecut=    80.00 Ry     beta= 0.40
     Davidson diagonalization with overlap
     ethr =  4.49E-05,  avg # of iterations =  4.0

     negative rho (up, down):  5.880E-06 0.000E+00

     total cpu time spent up to now is       11.7 secs

     total energy              =     -31.67553738 Ry
     Harris-Foulkes estimate   =     -31.67677161 Ry
     estimated scf accuracy    <       0.00267927 Ry

     iteration #  5     ecut=    80.00 Ry     beta= 0.40
     Davidson diagonalization with overlap
     ethr =  1.28E-05,  avg # of iterations =  9.0

     negative rho (up, down):  6.253E-06 0.000E+00

     total cpu time spent up to now is       13.5 secs

     total energy              =     -31.67640743 Ry
     Harris-Foulkes estimate   =     -31.67821173 Ry
     estimated scf accuracy    <       0.00658063 Ry

     iteration #  6     ecut=    80.00 Ry     beta= 0.40
     Davidson diagonalization with overlap
     ethr =  1.28E-05,  avg # of iterations =  2.0

     negative rho (up, down):  6.504E-06 0.000E+00

     total cpu time spent up to now is       14.9 secs

     total energy              =     -31.67635561 Ry
     Harris-Foulkes estimate   =     -31.67685295 Ry
     estimated scf accuracy    <       0.00105897 Ry

     iteration #  7     ecut=    80.00 Ry     beta= 0.40
     Davidson diagonalization with overlap
     ethr =  5.04E-06,  avg # of iterations =  3.0

     negative rho (up, down):  8.221E-06 0.000E+00

     total cpu time spent up to now is       16.2 secs

     total energy              =     -31.67662091 Ry
     Harris-Foulkes estimate   =     -31.67666961 Ry
     estimated scf accuracy    <       0.00014511 Ry

     iteration #  8     ecut=    80.00 Ry     beta= 0.40
     Davidson diagonalization with overlap
     ethr =  6.91E-07,  avg # of iterations =  2.0

     negative rho (up, down):  8.373E-06 0.000E+00

     total cpu time spent up to now is       17.6 secs

     total energy              =     -31.67664627 Ry
     Harris-Foulkes estimate   =     -31.67665606 Ry
     estimated scf accuracy    <       0.00003368 Ry

     iteration #  9     ecut=    80.00 Ry     beta= 0.40
     Davidson diagonalization with overlap
     ethr =  1.60E-07,  avg # of iterations =  2.0

     negative rho (up, down):  8.414E-06 0.000E+00

     total cpu time spent up to now is       19.0 secs

     total energy              =     -31.67665012 Ry
     Harris-Foulkes estimate   =     -31.67665140 Ry
     estimated scf accuracy    <       0.00000316 Ry

     iteration # 10     ecut=    80.00 Ry     beta= 0.40
     Davidson diagonalization with overlap
     ethr =  1.51E-08,  avg # of iterations =  3.0

     negative rho (up, down):  8.462E-06 0.000E+00

     total cpu time spent up to now is       20.5 secs

     End of self-consistent calculation

          k = 0.0000 0.0000 0.0000 (111965 PWs)   bands (ev):

    -9.6450  -8.0769  -8.0764  -7.5197  -6.5556  -6.5552  -4.1825  -3.7989
    -3.2627  -2.8072  -2.8070  -2.2405  -2.2402  -1.7266  -0.8758

     the Fermi energy is    -2.6601 ev

!    total energy              =     -31.67665094 Ry
     Harris-Foulkes estimate   =     -31.67665146 Ry
     estimated scf accuracy    <       0.00000089 Ry

     The total energy is the sum of the following terms:

     one-electron contribution =    -103.79141103 Ry
     hartree contribution      =      53.98852040 Ry
     xc contribution           =     -13.76104468 Ry
     ewald contribution        =      31.90171728 Ry
     smearing contrib. (-TS)   =      -0.01443291 Ry

     convergence has been achieved in  10 iterations

     negative rho (up, down):  8.462E-06 0.000E+00

     Forces acting on atoms (cartesian axes, Ry/au):

     atom    1 type  1   force =     0.00934836   -0.00537145    0.00000000
     atom    2 type  1   force =    -0.00934171   -0.00539344    0.00000000
     atom    3 type  1   force =    -0.00000716   -0.00268193    0.00000000
     atom    4 type  1   force =     0.00002237    0.01078165    0.00000000
     atom    5 type  1   force =     0.00229985    0.00132782    0.00000000
     atom    6 type  1   force =     0.00000448    0.00000259    0.00000000
     atom    7 type  1   force =    -0.00232620    0.00133477    0.00000000

     Total force =     0.019243     Total SCF correction =     0.000738


     Computing stress (Cartesian axis) and pressure


     negative rho (up, down):  8.462E-06 0.000E+00
          total   stress  (Ry/bohr**3)                   (kbar)     P=   -1.45
  -0.00001476  -0.00000001   0.00000000         -2.17     -0.00      0.00
  -0.00000001  -0.00001474   0.00000000         -0.00     -2.17      0.00
   0.00000000   0.00000000  -0.00000008          0.00      0.00     -0.01


     BFGS Geometry Optimization

     number of scf cycles    =   1
     number of bfgs steps    =   0

     enthalpy new            =     -31.6766509391 Ry

     new trust radius        =       0.0107868819 bohr
     new conv_thr            =       0.0000010000 Ry

     new unit-cell volume =   9275.73385 a.u.^3 (  1374.52193 Ang^3 )
     density =      0.25355 g/cm^3

CELL_PARAMETERS (alat= 16.84048341)
   0.999631108  -0.000000298   0.000000000
  -0.499815812   0.865706381   0.000000000
   0.000000000   0.000000000   2.244265901

ATOMIC_POSITIONS (angstrom)
Al       0.004944936   2.568798344   0.000000000
Al       4.449234130   2.568803577   0.000000000
Al       6.681277789   1.284416872   0.000000000
Al      -2.227063463   6.434784641   0.000000000
Al       0.001247132   5.143962688   0.000000000
Al       2.227104160   6.429099572   0.000000000
Al       4.452977118   5.143983225   0.000000000



     Writing output data file 2al_planar_2x2_vcr.save/
     NEW-OLD atomic charge density approx. for the potential

     negative rho (up, down):  8.469E-06 0.000E+00
     extrapolated charge   20.98452, renormalised to   21.00000

     total cpu time spent up to now is       36.7 secs

     Self-consistent Calculation

     iteration #  1     ecut=    80.00 Ry     beta= 0.40
     Davidson diagonalization with overlap
     ethr =  1.00E-06,  avg # of iterations =  4.0

     negative rho (up, down):  8.502E-06 0.000E+00

     total cpu time spent up to now is       38.4 secs

     total energy              =     -31.67705140 Ry
     Harris-Foulkes estimate   =     -31.74695356 Ry
     estimated scf accuracy    <       0.00010306 Ry

     iteration #  2     ecut=    80.00 Ry     beta= 0.40
     Davidson diagonalization with overlap
     ethr =  4.91E-07,  avg # of iterations =  4.0

     negative rho (up, down):  8.492E-06 0.000E+00

     total cpu time spent up to now is       39.9 secs

     total energy              =     -31.67709813 Ry
     Harris-Foulkes estimate   =     -31.67714358 Ry
     estimated scf accuracy    <       0.00018077 Ry

     iteration #  3     ecut=    80.00 Ry     beta= 0.40
     Davidson diagonalization with overlap
     ethr =  4.91E-07,  avg # of iterations =  2.0

     negative rho (up, down):  8.490E-06 0.000E+00

     total cpu time spent up to now is       41.0 secs

     total energy              =     -31.67711338 Ry
     Harris-Foulkes estimate   =     -31.67711419 Ry
     estimated scf accuracy    <       0.00001268 Ry

     iteration #  4     ecut=    80.00 Ry     beta= 0.40
     Davidson diagonalization with overlap
     ethr =  6.04E-08,  avg # of iterations =  5.0

     negative rho (up, down):  8.479E-06 0.000E+00

     total cpu time spent up to now is       42.3 secs

     total energy              =     -31.67711245 Ry
     Harris-Foulkes estimate   =     -31.67711384 Ry
     estimated scf accuracy    <       0.00000909 Ry

     iteration #  5     ecut=    80.00 Ry     beta= 0.40
     Davidson diagonalization with overlap
     ethr =  4.33E-08,  avg # of iterations =  1.0

     negative rho (up, down):  8.462E-06 0.000E+00

     total cpu time spent up to now is       43.5 secs

     total energy              =     -31.67711192 Ry
     Harris-Foulkes estimate   =     -31.67711292 Ry
     estimated scf accuracy    <       0.00000418 Ry

     iteration #  6     ecut=    80.00 Ry     beta= 0.40
     Davidson diagonalization with overlap
     ethr =  1.99E-08,  avg # of iterations =  4.0

     negative rho (up, down):  8.455E-06 0.000E+00

     total cpu time spent up to now is       44.8 secs

     End of self-consistent calculation

          k = 0.0000 0.0000 0.0000 (111965 PWs)   bands (ev):

    -9.6442  -8.0722  -8.0720  -7.5178  -6.5577  -6.5575  -4.1957  -3.7980
    -3.2585  -2.8027  -2.8025  -2.2368  -2.2366  -1.7248  -0.8778

     the Fermi energy is    -2.6557 ev

!    total energy              =     -31.67711232 Ry
     Harris-Foulkes estimate   =     -31.67711287 Ry
     estimated scf accuracy    <       0.00000083 Ry

     The total energy is the sum of the following terms:

     one-electron contribution =    -103.83091053 Ry
     hartree contribution      =      54.00978384 Ry
     xc contribution           =     -13.75997503 Ry
     ewald contribution        =      31.91857056 Ry
     smearing contrib. (-TS)   =      -0.01458116 Ry

     convergence has been achieved in   6 iterations

     negative rho (up, down):  8.455E-06 0.000E+00

     Forces acting on atoms (cartesian axes, Ry/au):

     atom    1 type  1   force =     0.00890401   -0.00511334    0.00000000
     atom    2 type  1   force =    -0.00886905   -0.00512055    0.00000000
     atom    3 type  1   force =    -0.00002545   -0.00184991    0.00000000
     atom    4 type  1   force =     0.00002372    0.01026777    0.00000000
     atom    5 type  1   force =     0.00157120    0.00090713    0.00000000
     atom    6 type  1   force =     0.00001036    0.00000598    0.00000000
     atom    7 type  1   force =    -0.00161480    0.00090292    0.00000000

     Total force =     0.018052     Total SCF correction =     0.000794


     Computing stress (Cartesian axis) and pressure


     negative rho (up, down):  8.455E-06 0.000E+00
          total   stress  (Ry/bohr**3)                   (kbar)     P=   -1.48
  -0.00001517  -0.00000000   0.00000000         -2.23     -0.00      0.00
  -0.00000000  -0.00001517   0.00000000         -0.00     -2.23      0.00
   0.00000000   0.00000000   0.00000006          0.00      0.00      0.01


     number of scf cycles    =   2
     number of bfgs steps    =   1

     enthalpy old            =     -31.6766509391 Ry
     enthalpy new            =     -31.6771123177 Ry

     CASE: enthalpy_new < enthalpy_old


     WARNING: bfgs curvature condition failed, Theta= 0.837
     new trust radius        =       0.0161743513 bohr
     new conv_thr            =       0.0000004614 Ry

     new unit-cell volume =   9265.04010 a.u.^3 (  1372.93728 Ang^3 )
     density =      0.25384 g/cm^3

CELL_PARAMETERS (alat= 16.84048341)
   0.999054575  -0.000000546   0.000000000
  -0.499527760   0.865207461   0.000000000
   0.000000000   0.000000000   2.244265901

ATOMIC_POSITIONS (angstrom)
Al       0.012358947   2.563056737   0.000000000
Al       4.439267627   2.563049392   0.000000000
Al       6.677410298   1.281852766   0.000000000
Al      -2.225761819   6.439629945   0.000000000
Al       0.002801006   5.141895684   0.000000000
Al       2.225824294   6.425396485   0.000000000
Al       4.448822792   5.141915912   0.000000000



     Writing output data file 2al_planar_2x2_vcr.save/
     NEW-OLD atomic charge density approx. for the potential

     negative rho (up, down):  8.469E-06 0.000E+00
     extrapolated charge   20.97578, renormalised to   21.00000

     total cpu time spent up to now is       60.4 secs

     Self-consistent Calculation

     iteration #  1     ecut=    80.00 Ry     beta= 0.40
     Davidson diagonalization with overlap
     ethr =  1.00E-06,  avg # of iterations =  4.0

     negative rho (up, down):  8.510E-06 0.000E+00

     total cpu time spent up to now is       62.3 secs

     total energy              =     -31.67766531 Ry
     Harris-Foulkes estimate   =     -31.78708160 Ry
     estimated scf accuracy    <       0.00015722 Ry

     iteration #  2     ecut=    80.00 Ry     beta= 0.40
     Davidson diagonalization with overlap
     ethr =  7.49E-07,  avg # of iterations =  3.0

     negative rho (up, down):  8.502E-06 0.000E+00

     total cpu time spent up to now is       63.6 secs

     total energy              =     -31.67774944 Ry
     Harris-Foulkes estimate   =     -31.67782705 Ry
     estimated scf accuracy    <       0.00032783 Ry

     iteration #  3     ecut=    80.00 Ry     beta= 0.40
     Davidson diagonalization with overlap
     ethr =  7.49E-07,  avg # of iterations =  2.0

     negative rho (up, down):  8.499E-06 0.000E+00

     total cpu time spent up to now is       64.8 secs

     total energy              =     -31.67777315 Ry
     Harris-Foulkes estimate   =     -31.67777509 Ry
     estimated scf accuracy    <       0.00003105 Ry

     iteration #  4     ecut=    80.00 Ry     beta= 0.40
     Davidson diagonalization with overlap
     ethr =  1.48E-07,  avg # of iterations =  1.0

     negative rho (up, down):  8.441E-06 0.000E+00

     total cpu time spent up to now is       65.9 secs

     total energy              =     -31.67776671 Ry
     Harris-Foulkes estimate   =     -31.67777380 Ry
     estimated scf accuracy    <       0.00002270 Ry

     iteration #  5     ecut=    80.00 Ry     beta= 0.40
     Davidson diagonalization with overlap
     ethr =  1.08E-07,  avg # of iterations =  2.0

     negative rho (up, down):  8.434E-06 0.000E+00

     total cpu time spent up to now is       67.2 secs

     total energy              =     -31.67777065 Ry
     Harris-Foulkes estimate   =     -31.67777100 Ry
     estimated scf accuracy    <       0.00000262 Ry

     iteration #  6     ecut=    80.00 Ry     beta= 0.40
     Davidson diagonalization with overlap
     ethr =  1.25E-08,  avg # of iterations =  3.0

     negative rho (up, down):  8.435E-06 0.000E+00

     total cpu time spent up to now is       68.6 secs

     total energy              =     -31.67777086 Ry
     Harris-Foulkes estimate   =     -31.67777108 Ry
     estimated scf accuracy    <       0.00000160 Ry

     iteration #  7     ecut=    80.00 Ry     beta= 0.40
     Davidson diagonalization with overlap
     ethr =  7.60E-09,  avg # of iterations =  1.0

     negative rho (up, down):  8.431E-06 0.000E+00

     total cpu time spent up to now is       69.7 secs

     total energy              =     -31.67777033 Ry
     Harris-Foulkes estimate   =     -31.67777089 Ry
     estimated scf accuracy    <       0.00000115 Ry

     iteration #  8     ecut=    80.00 Ry     beta= 0.40
     Davidson diagonalization with overlap
     ethr =  5.50E-09,  avg # of iterations =  3.0

     negative rho (up, down):  8.425E-06 0.000E+00

     total cpu time spent up to now is       71.0 secs

     End of self-consistent calculation

          k = 0.0000 0.0000 0.0000 (111965 PWs)   bands (ev):

    -9.6414  -8.0636  -8.0635  -7.5130  -6.5600  -6.5599  -4.2167  -3.7959
    -3.2506  -2.7936  -2.7934  -2.2302  -2.2302  -1.7213  -0.8802

     the Fermi energy is    -2.6473 ev

!    total energy              =     -31.67777052 Ry
     Harris-Foulkes estimate   =     -31.67777074 Ry
     estimated scf accuracy    <       0.00000027 Ry

     The total energy is the sum of the following terms:

     one-electron contribution =    -103.89283166 Ry
     hartree contribution      =      54.04113254 Ry
     xc contribution           =     -13.75787273 Ry
     ewald contribution        =      31.94668818 Ry
     smearing contrib. (-TS)   =      -0.01488686 Ry

     convergence has been achieved in   8 iterations

     negative rho (up, down):  8.425E-06 0.000E+00

     Forces acting on atoms (cartesian axes, Ry/au):

     atom    1 type  1   force =     0.00824835   -0.00472823    0.00000000
     atom    2 type  1   force =    -0.00822785   -0.00475035    0.00000000
     atom    3 type  1   force =    -0.00002103   -0.00069275    0.00000000
     atom    4 type  1   force =     0.00002941    0.00950739    0.00000000
     atom    5 type  1   force =     0.00060286    0.00034806    0.00000000
     atom    6 type  1   force =    -0.00002129   -0.00001229    0.00000000
     atom    7 type  1   force =    -0.00061045    0.00032817    0.00000000

     Total force =     0.016507     Total SCF correction =     0.000414


     Computing stress (Cartesian axis) and pressure


     negative rho (up, down):  8.425E-06 0.000E+00
          total   stress  (Ry/bohr**3)                   (kbar)     P=   -1.55
  -0.00001580  -0.00000000  -0.00000000         -2.32     -0.00     -0.00
  -0.00000000  -0.00001580  -0.00000000         -0.00     -2.32     -0.00
   0.00000000   0.00000000   0.00000006          0.00      0.00      0.01


     number of scf cycles    =   3
     number of bfgs steps    =   2

     enthalpy old            =     -31.6771123177 Ry
     enthalpy new            =     -31.6777705248 Ry

     CASE: enthalpy_new < enthalpy_old

     new trust radius        =       0.0242475411 bohr
     new conv_thr            =       0.0000006582 Ry

     new unit-cell volume =   9247.87965 a.u.^3 (  1370.39436 Ang^3 )
     density =      0.25431 g/cm^3

CELL_PARAMETERS (alat= 16.84048341)
   0.998128643  -0.000001052   0.000000000
  -0.499065232   0.864406339   0.000000000
   0.000000000   0.000000000   2.244265901

ATOMIC_POSITIONS (angstrom)
Al       0.023463936   2.554302911   0.000000000
Al       4.424050098   2.554263513   0.000000000
Al       6.671203306   1.278679191   0.000000000
Al      -2.223668476   6.446484715   0.000000000
Al       0.004504766   5.138119811   0.000000000
Al       2.223743309   6.419435454   0.000000000
Al       4.442970898   5.138127254   0.000000000



     Writing output data file 2al_planar_2x2_vcr.save/
     NEW-OLD atomic charge density approx. for the potential

     negative rho (up, down):  8.453E-06 0.000E+00
     extrapolated charge   20.96106, renormalised to   21.00000

     total cpu time spent up to now is       86.6 secs

     Self-consistent Calculation

     iteration #  1     ecut=    80.00 Ry     beta= 0.40
     Davidson diagonalization with overlap
     ethr =  1.00E-06,  avg # of iterations =  4.0

     negative rho (up, down):  8.518E-06 0.000E+00

     total cpu time spent up to now is       88.3 secs

     total energy              =     -31.67849635 Ry
     Harris-Foulkes estimate   =     -31.85460036 Ry
     estimated scf accuracy    <       0.00025403 Ry

     iteration #  2     ecut=    80.00 Ry     beta= 0.40
     Davidson diagonalization with overlap
     ethr =  1.21E-06,  avg # of iterations =  5.0

     negative rho (up, down):  8.506E-06 0.000E+00

     total cpu time spent up to now is       90.0 secs

     total energy              =     -31.67867156 Ry
     Harris-Foulkes estimate   =     -31.67880482 Ry
     estimated scf accuracy    <       0.00059325 Ry

     iteration #  3     ecut=    80.00 Ry     beta= 0.40
     Davidson diagonalization with overlap
     ethr =  1.21E-06,  avg # of iterations =  2.0

     negative rho (up, down):  8.501E-06 0.000E+00

     total cpu time spent up to now is       91.2 secs

     total energy              =     -31.67870584 Ry
     Harris-Foulkes estimate   =     -31.67871310 Ry
     estimated scf accuracy    <       0.00007742 Ry

     iteration #  4     ecut=    80.00 Ry     beta= 0.40
     Davidson diagonalization with overlap
     ethr =  3.69E-07,  avg # of iterations =  3.0

     negative rho (up, down):  8.431E-06 0.000E+00

     total cpu time spent up to now is       92.4 secs

     total energy              =     -31.67869034 Ry
     Harris-Foulkes estimate   =     -31.67870758 Ry
     estimated scf accuracy    <       0.00004965 Ry

     iteration #  5     ecut=    80.00 Ry     beta= 0.40
     Davidson diagonalization with overlap
     ethr =  2.36E-07,  avg # of iterations =  3.0

     negative rho (up, down):  8.420E-06 0.000E+00

     total cpu time spent up to now is       93.7 secs

     total energy              =     -31.67870194 Ry
     Harris-Foulkes estimate   =     -31.67870231 Ry
     estimated scf accuracy    <       0.00000697 Ry

     iteration #  6     ecut=    80.00 Ry     beta= 0.40
     Davidson diagonalization with overlap
     ethr =  3.32E-08,  avg # of iterations =  5.0

     negative rho (up, down):  8.417E-06 0.000E+00

     total cpu time spent up to now is       95.0 secs

     total energy              =     -31.67870149 Ry
     Harris-Foulkes estimate   =     -31.67870264 Ry
     estimated scf accuracy    <       0.00000599 Ry

     iteration #  7     ecut=    80.00 Ry     beta= 0.40
     Davidson diagonalization with overlap
     ethr =  2.85E-08,  avg # of iterations =  1.0

     negative rho (up, down):  8.409E-06 0.000E+00

     total cpu time spent up to now is       96.1 secs

     total energy              =     -31.67870024 Ry
     Harris-Foulkes estimate   =     -31.67870166 Ry
     estimated scf accuracy    <       0.00000341 Ry

     iteration #  8     ecut=    80.00 Ry     beta= 0.40
     Davidson diagonalization with overlap
     ethr =  1.62E-08,  avg # of iterations =  3.0

     negative rho (up, down):  8.403E-06 0.000E+00

     total cpu time spent up to now is       97.5 secs

     End of self-consistent calculation

          k = 0.0000 0.0000 0.0000 (111965 PWs)   bands (ev):

    -9.6387  -8.0524  -8.0523  -7.5065  -6.5633  -6.5632  -4.2475  -3.7935
    -3.2394  -2.7802  -2.7800  -2.2214  -2.2214  -1.7164  -0.8832

     the Fermi energy is    -2.6351 ev

!    total energy              =     -31.67870072 Ry
     Harris-Foulkes estimate   =     -31.67870116 Ry
     estimated scf accuracy    <       0.00000053 Ry

     The total energy is the sum of the following terms:

     one-electron contribution =    -103.99988083 Ry
     hartree contribution      =      54.09566251 Ry
     xc contribution           =     -13.75514851 Ry
     ewald contribution        =      31.99603497 Ry
     smearing contrib. (-TS)   =      -0.01536887 Ry

     convergence has been achieved in   8 iterations

     negative rho (up, down):  8.403E-06 0.000E+00

     Forces acting on atoms (cartesian axes, Ry/au):

     atom    1 type  1   force =     0.00735058   -0.00422826    0.00000000
     atom    2 type  1   force =    -0.00732743   -0.00423049    0.00000000
     atom    3 type  1   force =    -0.00002239    0.00087898    0.00000000
     atom    4 type  1   force =     0.00001351    0.00847992    0.00000000
     atom    5 type  1   force =    -0.00075677   -0.00043692    0.00000000
     atom    6 type  1   force =    -0.00000753   -0.00000434    0.00000000
     atom    7 type  1   force =     0.00075003   -0.00045888    0.00000000

     Total force =     0.014755     Total SCF correction =     0.000615


     Computing stress (Cartesian axis) and pressure


     negative rho (up, down):  8.403E-06 0.000E+00
          total   stress  (Ry/bohr**3)                   (kbar)     P=   -1.63
  -0.00001665  -0.00000001   0.00000000         -2.45     -0.00      0.00
  -0.00000001  -0.00001664   0.00000000         -0.00     -2.45      0.00
   0.00000000   0.00000000   0.00000008          0.00      0.00      0.01


     number of scf cycles    =   4
     number of bfgs steps    =   3

     enthalpy old            =     -31.6777705248 Ry
     enthalpy new            =     -31.6787007229 Ry

     CASE: enthalpy_new < enthalpy_old

     new trust radius        =       0.0363375918 bohr
     new conv_thr            =       0.0000008480 Ry

     new unit-cell volume =   9220.66056 a.u.^3 (  1366.36091 Ang^3 )
     density =      0.25506 g/cm^3

CELL_PARAMETERS (alat= 16.84048341)
   0.996658117  -0.000002016   0.000000000
  -0.498330805   0.863134273   0.000000000
   0.000000000   0.000000000   2.244265901

ATOMIC_POSITIONS (angstrom)
Al       0.040074925   2.540976412   0.000000000
Al       4.400908598   2.540902708   0.000000000
Al       6.661345242   1.274827139   0.000000000
Al      -2.220359109   6.456197251   0.000000000
Al       0.006179381   5.131529185   0.000000000
Al       2.220450811   6.409977009   0.000000000
Al       4.434705890   5.131515894   0.000000000



     Writing output data file 2al_planar_2x2_vcr.save/
     NEW-OLD atomic charge density approx. for the potential

     negative rho (up, down):  8.461E-06 0.000E+00
     extrapolated charge   20.93806, renormalised to   21.00000

     total cpu time spent up to now is      113.0 secs

     Self-consistent Calculation

     iteration #  1     ecut=    80.00 Ry     beta= 0.40
     Davidson diagonalization with overlap
     ethr =  1.00E-06,  avg # of iterations =  5.0

     negative rho (up, down):  8.562E-06 0.000E+00

     total cpu time spent up to now is      114.8 secs

     total energy              =     -31.67953621 Ry
     Harris-Foulkes estimate   =     -31.96027405 Ry
     estimated scf accuracy    <       0.00052995 Ry

     iteration #  2     ecut=    80.00 Ry     beta= 0.40
     Davidson diagonalization with overlap
     ethr =  2.52E-06,  avg # of iterations =  3.0

     negative rho (up, down):  8.541E-06 0.000E+00

     total cpu time spent up to now is      116.1 secs

     total energy              =     -31.67993524 Ry
     Harris-Foulkes estimate   =     -31.68023066 Ry
     estimated scf accuracy    <       0.00135476 Ry

     iteration #  3     ecut=    80.00 Ry     beta= 0.40
     Davidson diagonalization with overlap
     ethr =  2.52E-06,  avg # of iterations =  2.0

     negative rho (up, down):  8.527E-06 0.000E+00

     total cpu time spent up to now is      117.2 secs

     total energy              =     -31.68000417 Ry
     Harris-Foulkes estimate   =     -31.68002366 Ry
     estimated scf accuracy    <       0.00019701 Ry

     iteration #  4     ecut=    80.00 Ry     beta= 0.40
     Davidson diagonalization with overlap
     ethr =  9.38E-07,  avg # of iterations =  1.0

     negative rho (up, down):  8.381E-06 0.000E+00

     total cpu time spent up to now is      118.4 secs

     total energy              =     -31.67996190 Ry
     Harris-Foulkes estimate   =     -31.68000826 Ry
     estimated scf accuracy    <       0.00012235 Ry

     iteration #  5     ecut=    80.00 Ry     beta= 0.40
     Davidson diagonalization with overlap
     ethr =  5.83E-07,  avg # of iterations =  4.0

     negative rho (up, down):  8.376E-06 0.000E+00

     total cpu time spent up to now is      119.7 secs

     total energy              =     -31.67999827 Ry
     Harris-Foulkes estimate   =     -31.67999962 Ry
     estimated scf accuracy    <       0.00002454 Ry

     iteration #  6     ecut=    80.00 Ry     beta= 0.40
     Davidson diagonalization with overlap
     ethr =  1.17E-07,  avg # of iterations =  1.0

     negative rho (up, down):  8.376E-06 0.000E+00

     total cpu time spent up to now is      120.8 secs

     total energy              =     -31.67999872 Ry
     Harris-Foulkes estimate   =     -31.67999892 Ry
     estimated scf accuracy    <       0.00002197 Ry

     iteration #  7     ecut=    80.00 Ry     beta= 0.40
     Davidson diagonalization with overlap
     ethr =  1.05E-07,  avg # of iterations =  1.0

     negative rho (up, down):  8.382E-06 0.000E+00

     total cpu time spent up to now is      121.8 secs

     total energy              =     -31.67999934 Ry
     Harris-Foulkes estimate   =     -31.67999887 Ry
     estimated scf accuracy    <       0.00002147 Ry

     iteration #  8     ecut=    80.00 Ry     beta= 0.40
     Davidson diagonalization with overlap
     ethr =  1.02E-07,  avg # of iterations =  1.0

     negative rho (up, down):  8.444E-06 0.000E+00

     total cpu time spent up to now is      123.0 secs

     total energy              =     -31.67998943 Ry
     Harris-Foulkes estimate   =     -31.67999942 Ry
     estimated scf accuracy    <       0.00002295 Ry

     iteration #  9     ecut=    80.00 Ry     beta= 0.40
     Davidson diagonalization with overlap
     ethr =  1.02E-07,  avg # of iterations =  2.0

     negative rho (up, down):  8.431E-06 0.000E+00

     total cpu time spent up to now is      124.2 secs

     total energy              =     -31.67999303 Ry
     Harris-Foulkes estimate   =     -31.67999311 Ry
     estimated scf accuracy    <       0.00000129 Ry

     iteration # 10     ecut=    80.00 Ry     beta= 0.40
     Davidson diagonalization with overlap
     ethr =  6.16E-09,  avg # of iterations =  4.0

     negative rho (up, down):  8.421E-06 0.000E+00

     total cpu time spent up to now is      125.4 secs

     total energy              =     -31.67999316 Ry
     Harris-Foulkes estimate   =     -31.67999319 Ry
     estimated scf accuracy    <       0.00000085 Ry

     iteration # 11     ecut=    80.00 Ry     beta= 0.40
     Davidson diagonalization with overlap
     ethr =  4.04E-09,  avg # of iterations =  1.0

     negative rho (up, down):  8.364E-06 0.000E+00

     total cpu time spent up to now is      126.5 secs

     End of self-consistent calculation

          k = 0.0000 0.0000 0.0000 (111965 PWs)   bands (ev):

    -9.6353  -8.0369  -8.0365  -7.4965  -6.5681  -6.5679  -4.2956  -3.7906
    -3.2227  -2.7594  -2.7591  -2.2090  -2.2087  -1.7087  -0.8871

     the Fermi energy is    -2.6168 ev

!    total energy              =     -31.67999299 Ry
     Harris-Foulkes estimate   =     -31.67999318 Ry
     estimated scf accuracy    <       0.00000053 Ry

     The total energy is the sum of the following terms:

     one-electron contribution =    -104.17882501 Ry
     hartree contribution      =      54.18584518 Ry
     xc contribution           =     -13.75121498 Ry
     ewald contribution        =      32.08035645 Ry
     smearing contrib. (-TS)   =      -0.01615462 Ry

     convergence has been achieved in  11 iterations

     negative rho (up, down):  8.364E-06 0.000E+00

     Forces acting on atoms (cartesian axes, Ry/au):

     atom    1 type  1   force =     0.00606836   -0.00347374    0.00000000
     atom    2 type  1   force =    -0.00607336   -0.00350645    0.00000000
     atom    3 type  1   force =     0.00000527    0.00302471    0.00000000
     atom    4 type  1   force =     0.00002583    0.00699222    0.00000000
     atom    5 type  1   force =    -0.00261393   -0.00150915    0.00000000
     atom    6 type  1   force =    -0.00003428   -0.00001979    0.00000000
     atom    7 type  1   force =     0.00262211   -0.00150779    0.00000000

     Total force =     0.013205     Total SCF correction =     0.000274


     Computing stress (Cartesian axis) and pressure


     negative rho (up, down):  8.364E-06 0.000E+00
          total   stress  (Ry/bohr**3)                   (kbar)     P=   -1.75
  -0.00001785  -0.00000001   0.00000000         -2.63     -0.00      0.00
  -0.00000001  -0.00001783   0.00000000         -0.00     -2.62      0.00
   0.00000000   0.00000000   0.00000008          0.00      0.00      0.01


     number of scf cycles    =   5
     number of bfgs steps    =   4

     enthalpy old            =     -31.6787007229 Ry
     enthalpy new            =     -31.6799929916 Ry

     CASE: enthalpy_new < enthalpy_old

     new trust radius        =       0.0544261451 bohr
     new conv_thr            =       0.0000006992 Ry

     new unit-cell volume =   9177.68872 a.u.^3 (  1359.99314 Ang^3 )
     density =      0.25625 g/cm^3

CELL_PARAMETERS (alat= 16.84048341)
   0.994332034  -0.000003684   0.000000000
  -0.497169207   0.861122326   0.000000000
   0.000000000   0.000000000   2.244265901

ATOMIC_POSITIONS (angstrom)
Al       0.064880341   2.520755388   0.000000000
Al       4.365748905   2.520603163   0.000000000
Al       6.645775332   1.270310436   0.000000000
Al      -2.215116576   6.469860054   0.000000000
Al       0.007459914   5.120315339   0.000000000
Al       2.215222750   6.395005337   0.000000000
Al       4.423009354   5.120290226   0.000000000



     Writing output data file 2al_planar_2x2_vcr.save/
     NEW-OLD atomic charge density approx. for the potential

     negative rho (up, down):  8.545E-06 0.000E+00
     extrapolated charge   20.90175, renormalised to   21.00000

     total cpu time spent up to now is      141.3 secs

     Self-consistent Calculation

     iteration #  1     ecut=    80.00 Ry     beta= 0.40
     Davidson diagonalization with overlap
     ethr =  1.00E-06,  avg # of iterations =  5.0

     negative rho (up, down):  8.641E-06 0.000E+00

     total cpu time spent up to now is      142.9 secs

     total energy              =     -31.68058589 Ry
     Harris-Foulkes estimate   =     -32.12754882 Ry
     estimated scf accuracy    <       0.00138273 Ry

     iteration #  2     ecut=    80.00 Ry     beta= 0.40
     Davidson diagonalization with overlap
     ethr =  6.58E-06,  avg # of iterations =  5.0

     negative rho (up, down):  8.595E-06 0.000E+00

     total cpu time spent up to now is      144.1 secs

     total energy              =     -31.68157667 Ry
     Harris-Foulkes estimate   =     -31.68239034 Ry
     estimated scf accuracy    <       0.00377020 Ry

     iteration #  3     ecut=    80.00 Ry     beta= 0.40
     Davidson diagonalization with overlap
     ethr =  6.58E-06,  avg # of iterations =  2.0

     negative rho (up, down):  8.572E-06 0.000E+00

     total cpu time spent up to now is      145.2 secs

     total energy              =     -31.68176970 Ry
     Harris-Foulkes estimate   =     -31.68181733 Ry
     estimated scf accuracy    <       0.00050890 Ry

     iteration #  4     ecut=    80.00 Ry     beta= 0.40
     Davidson diagonalization with overlap
     ethr =  2.42E-06,  avg # of iterations =  1.0

     negative rho (up, down):  8.332E-06 0.000E+00

     total cpu time spent up to now is      146.0 secs

     total energy              =     -31.68166349 Ry
     Harris-Foulkes estimate   =     -31.68178028 Ry
     estimated scf accuracy    <       0.00031469 Ry

     iteration #  5     ecut=    80.00 Ry     beta= 0.40
     Davidson diagonalization with overlap
     ethr =  1.50E-06,  avg # of iterations =  4.0

     negative rho (up, down):  8.333E-06 0.000E+00

     total cpu time spent up to now is      147.1 secs

     total energy              =     -31.68175559 Ry
     Harris-Foulkes estimate   =     -31.68175638 Ry
     estimated scf accuracy    <       0.00004980 Ry

     iteration #  6     ecut=    80.00 Ry     beta= 0.40
     Davidson diagonalization with overlap
     ethr =  2.37E-07,  avg # of iterations =  2.0

     negative rho (up, down):  8.328E-06 0.000E+00

     total cpu time spent up to now is      148.0 secs

     total energy              =     -31.68175714 Ry
     Harris-Foulkes estimate   =     -31.68175819 Ry
     estimated scf accuracy    <       0.00004990 Ry

     iteration #  7     ecut=    80.00 Ry     beta= 0.40
     Davidson diagonalization with overlap
     ethr =  2.37E-07,  avg # of iterations =  1.0

     negative rho (up, down):  8.276E-06 0.000E+00

     total cpu time spent up to now is      148.8 secs

     total energy              =     -31.68174871 Ry
     Harris-Foulkes estimate   =     -31.68175759 Ry
     estimated scf accuracy    <       0.00004603 Ry

     iteration #  8     ecut=    80.00 Ry     beta= 0.40
     Davidson diagonalization with overlap
     ethr =  2.19E-07,  avg # of iterations =  2.0

     negative rho (up, down):  8.263E-06 0.000E+00

     total cpu time spent up to now is      149.7 secs

     total energy              =     -31.68175058 Ry
     Harris-Foulkes estimate   =     -31.68175629 Ry
     estimated scf accuracy    <       0.00006023 Ry

     iteration #  9     ecut=    80.00 Ry     beta= 0.40
     Davidson diagonalization with overlap
     ethr =  2.19E-07,  avg # of iterations =  4.0

     negative rho (up, down):  8.268E-06 0.000E+00

     total cpu time spent up to now is      150.9 secs

     total energy              =     -31.68174918 Ry
     Harris-Foulkes estimate   =     -31.68175758 Ry
     estimated scf accuracy    <       0.00009111 Ry

     iteration # 10     ecut=    80.00 Ry     beta= 0.40
     Davidson diagonalization with overlap
     ethr =  2.19E-07,  avg # of iterations =  1.0

     negative rho (up, down):  8.283E-06 0.000E+00

     total cpu time spent up to now is      151.8 secs

     total energy              =     -31.68174293 Ry
     Harris-Foulkes estimate   =     -31.68175037 Ry
     estimated scf accuracy    <       0.00005030 Ry

     iteration # 11     ecut=    80.00 Ry     beta= 0.40
     Davidson diagonalization with overlap
     ethr =  2.19E-07,  avg # of iterations =  1.0

     negative rho (up, down):  8.281E-06 0.000E+00

     total cpu time spent up to now is      152.7 secs

     total energy              =     -31.68174630 Ry
     Harris-Foulkes estimate   =     -31.68174514 Ry
     estimated scf accuracy    <       0.00001286 Ry

     iteration # 12     ecut=    80.00 Ry     beta= 0.40
     Davidson diagonalization with overlap
     ethr =  6.12E-08,  avg # of iterations =  1.0

     negative rho (up, down):  8.293E-06 0.000E+00

     total cpu time spent up to now is      153.6 secs

     total energy              =     -31.68174477 Ry
     Harris-Foulkes estimate   =     -31.68174667 Ry
     estimated scf accuracy    <       0.00001733 Ry

     iteration # 13     ecut=    80.00 Ry     beta= 0.40
     Davidson diagonalization with overlap
     ethr =  6.12E-08,  avg # of iterations =  2.0

     negative rho (up, down):  8.302E-06 0.000E+00

     total cpu time spent up to now is      154.6 secs

     total energy              =     -31.68174450 Ry
     Harris-Foulkes estimate   =     -31.68174548 Ry
     estimated scf accuracy    <       0.00000426 Ry

     iteration # 14     ecut=    80.00 Ry     beta= 0.40
     Davidson diagonalization with overlap
     ethr =  2.03E-08,  avg # of iterations =  3.0

     negative rho (up, down):  8.300E-06 0.000E+00

     total cpu time spent up to now is      155.6 secs

     End of self-consistent calculation

          k = 0.0000 0.0000 0.0000 (111965 PWs)   bands (ev):

    -9.6311  -8.0132  -8.0128  -7.4821  -6.5742  -6.5739  -4.3677  -3.7865
    -3.1959  -2.7267  -2.7265  -2.1894  -2.1891  -1.6981  -0.8912

     the Fermi energy is    -2.5882 ev

!    total energy              =     -31.68174519 Ry
     Harris-Foulkes estimate   =     -31.68174520 Ry
     estimated scf accuracy    <       0.00000007 Ry

     The total energy is the sum of the following terms:

     one-electron contribution =    -104.47829764 Ry
     hartree contribution      =      54.33644920 Ry
     xc contribution           =     -13.74597210 Ry
     ewald contribution        =      32.22337925 Ry
     smearing contrib. (-TS)   =      -0.01730389 Ry

     convergence has been achieved in  14 iterations

     negative rho (up, down):  8.300E-06 0.000E+00

     Forces acting on atoms (cartesian axes, Ry/au):

     atom    1 type  1   force =     0.00439653   -0.00255310    0.00000000
     atom    2 type  1   force =    -0.00438834   -0.00253361    0.00000000
     atom    3 type  1   force =    -0.00001111    0.00572663    0.00000000
     atom    4 type  1   force =    -0.00001279    0.00508405    0.00000000
     atom    5 type  1   force =    -0.00495058   -0.00285822    0.00000000
     atom    6 type  1   force =     0.00001243    0.00000718    0.00000000
     atom    7 type  1   force =     0.00495385   -0.00287293    0.00000000

     Total force =     0.013253     Total SCF correction =     0.000177


     Computing stress (Cartesian axis) and pressure


     negative rho (up, down):  8.300E-06 0.000E+00
          total   stress  (Ry/bohr**3)                   (kbar)     P=   -1.91
  -0.00001949  -0.00000002   0.00000000         -2.87     -0.00      0.00
  -0.00000002  -0.00001946   0.00000000         -0.00     -2.86      0.00
   0.00000000   0.00000000   0.00000003          0.00      0.00      0.00


     number of scf cycles    =   6
     number of bfgs steps    =   5

     enthalpy old            =     -31.6799929916 Ry
     enthalpy new            =     -31.6817451880 Ry

     CASE: enthalpy_new < enthalpy_old

     new trust radius        =       0.0814486022 bohr
     new conv_thr            =       0.0000005727 Ry

     new unit-cell volume =   9110.23807 a.u.^3 (  1349.99798 Ang^3 )
     density =      0.25815 g/cm^3

CELL_PARAMETERS (alat= 16.84048341)
   0.990669802  -0.000006465   0.000000000
  -0.495340500   0.857954913   0.000000000
   0.000000000   0.000000000   2.244265901

ATOMIC_POSITIONS (angstrom)
Al       0.101862062   2.490075426   0.000000000
Al       4.312475284   2.489845488   0.000000000
Al       6.621248914   1.265201737   0.000000000
Al      -2.206898558   6.489000161   0.000000000
Al       0.007739832   5.101659052   0.000000000
Al       2.207034046   6.371459550   0.000000000
Al       4.406321880   5.101603945   0.000000000



     Writing output data file 2al_planar_2x2_vcr.save/
     NEW-OLD atomic charge density approx. for the potential

     negative rho (up, down):  9.158E-06 0.000E+00
     extrapolated charge   20.84465, renormalised to   21.00000

     total cpu time spent up to now is      170.5 secs

     Self-consistent Calculation

     iteration #  1     ecut=    80.00 Ry     beta= 0.40
     Davidson diagonalization with overlap
     ethr =  1.00E-06,  avg # of iterations =  7.0

     negative rho (up, down):  8.965E-06 0.000E+00

     total cpu time spent up to now is      172.1 secs

     total energy              =     -31.68133297 Ry
     Harris-Foulkes estimate   =     -32.39216797 Ry
     estimated scf accuracy    <       0.00308563 Ry

     iteration #  2     ecut=    80.00 Ry     beta= 0.40
     Davidson diagonalization with overlap
     ethr =  1.47E-05,  avg # of iterations =  5.0

     negative rho (up, down):  8.834E-06 0.000E+00

     total cpu time spent up to now is      173.2 secs

     total energy              =     -31.68363288 Ry
     Harris-Foulkes estimate   =     -31.68555463 Ry
     estimated scf accuracy    <       0.00913611 Ry

     iteration #  3     ecut=    80.00 Ry     beta= 0.40
     Davidson diagonalization with overlap
     ethr =  1.47E-05,  avg # of iterations =  2.0

     negative rho (up, down):  8.737E-06 0.000E+00

     total cpu time spent up to now is      174.1 secs

     total energy              =     -31.68408764 Ry
     Harris-Foulkes estimate   =     -31.68421346 Ry
     estimated scf accuracy    <       0.00124675 Ry

     iteration #  4     ecut=    80.00 Ry     beta= 0.40
     Davidson diagonalization with overlap
     ethr =  5.94E-06,  avg # of iterations =  1.0

     negative rho (up, down):  8.297E-06 0.000E+00

     total cpu time spent up to now is      174.9 secs

     total energy              =     -31.68386259 Ry
     Harris-Foulkes estimate   =     -31.68411268 Ry
     estimated scf accuracy    <       0.00072511 Ry

     iteration #  5     ecut=    80.00 Ry     beta= 0.40
     Davidson diagonalization with overlap
     ethr =  3.45E-06,  avg # of iterations =  5.0

     negative rho (up, down):  8.285E-06 0.000E+00

     total cpu time spent up to now is      176.0 secs

     total energy              =     -31.68404048 Ry
     Harris-Foulkes estimate   =     -31.68404803 Ry
     estimated scf accuracy    <       0.00009119 Ry

     iteration #  6     ecut=    80.00 Ry     beta= 0.40
     Davidson diagonalization with overlap
     ethr =  4.34E-07,  avg # of iterations =  3.0

     negative rho (up, down):  8.270E-06 0.000E+00

     total cpu time spent up to now is      177.0 secs

     total energy              =     -31.68403638 Ry
     Harris-Foulkes estimate   =     -31.68404779 Ry
     estimated scf accuracy    <       0.00007690 Ry

     iteration #  7     ecut=    80.00 Ry     beta= 0.40
     Davidson diagonalization with overlap
     ethr =  3.66E-07,  avg # of iterations =  1.0

     negative rho (up, down):  8.174E-06 0.000E+00

     total cpu time spent up to now is      177.9 secs

     total energy              =     -31.68402013 Ry
     Harris-Foulkes estimate   =     -31.68403770 Ry
     estimated scf accuracy    <       0.00004885 Ry

     iteration #  8     ecut=    80.00 Ry     beta= 0.40
     Davidson diagonalization with overlap
     ethr =  2.33E-07,  avg # of iterations =  3.0

     negative rho (up, down):  8.175E-06 0.000E+00

     total cpu time spent up to now is      178.9 secs

     total energy              =     -31.68402867 Ry
     Harris-Foulkes estimate   =     -31.68402976 Ry
     estimated scf accuracy    <       0.00000469 Ry

     iteration #  9     ecut=    80.00 Ry     beta= 0.40
     Davidson diagonalization with overlap
     ethr =  2.23E-08,  avg # of iterations =  5.0

     negative rho (up, down):  8.186E-06 0.000E+00

     total cpu time spent up to now is      180.0 secs

     total energy              =     -31.68402877 Ry
     Harris-Foulkes estimate   =     -31.68402933 Ry
     estimated scf accuracy    <       0.00000203 Ry

     iteration # 10     ecut=    80.00 Ry     beta= 0.40
     Davidson diagonalization with overlap
     ethr =  9.68E-09,  avg # of iterations =  2.0

     negative rho (up, down):  8.178E-06 0.000E+00

     total cpu time spent up to now is      180.8 secs

     total energy              =     -31.68402884 Ry
     Harris-Foulkes estimate   =     -31.68402895 Ry
     estimated scf accuracy    <       0.00000068 Ry

     iteration # 11     ecut=    80.00 Ry     beta= 0.40
     Davidson diagonalization with overlap
     ethr =  3.23E-09,  avg # of iterations =  3.0

     negative rho (up, down):  8.166E-06 0.000E+00

     total cpu time spent up to now is      181.8 secs

     End of self-consistent calculation

          k = 0.0000 0.0000 0.0000 (111965 PWs)   bands (ev):

    -9.6295  -7.9809  -7.9803  -7.4644  -6.5843  -6.5837  -4.4809  -3.7838
    -3.1553  -2.6795  -2.6793  -2.1619  -2.1615  -1.6856  -0.8971

     the Fermi energy is    -2.5474 ev

!    total energy              =     -31.68402856 Ry
     Harris-Foulkes estimate   =     -31.68402900 Ry
     estimated scf accuracy    <       0.00000056 Ry

     The total energy is the sum of the following terms:

     one-electron contribution =    -104.97990831 Ry
     hartree contribution      =      54.58917447 Ry
     xc contribution           =     -13.73927275 Ry
     ewald contribution        =      32.46495249 Ry
     smearing contrib. (-TS)   =      -0.01897445 Ry

     convergence has been achieved in  11 iterations

     negative rho (up, down):  8.166E-06 0.000E+00

     Forces acting on atoms (cartesian axes, Ry/au):

     atom    1 type  1   force =     0.00203435   -0.00119594    0.00000000
     atom    2 type  1   force =    -0.00204225   -0.00117909    0.00000000
     atom    3 type  1   force =    -0.00000331    0.00920299    0.00000000
     atom    4 type  1   force =    -0.00001854    0.00235977    0.00000000
     atom    5 type  1   force =    -0.00794173   -0.00458516    0.00000000
     atom    6 type  1   force =     0.00000311    0.00000180    0.00000000
     atom    7 type  1   force =     0.00796837   -0.00460437    0.00000000

     Total force =     0.016437     Total SCF correction =     0.000488


     Computing stress (Cartesian axis) and pressure


     negative rho (up, down):  8.166E-06 0.000E+00
          total   stress  (Ry/bohr**3)                   (kbar)     P=   -2.14
  -0.00002186  -0.00000003   0.00000000         -3.22     -0.00      0.00
  -0.00000003  -0.00002183   0.00000000         -0.00     -3.21      0.00
   0.00000000   0.00000000   0.00000002          0.00      0.00      0.00


     number of scf cycles    =   7
     number of bfgs steps    =   6

     enthalpy old            =     -31.6817451880 Ry
     enthalpy new            =     -31.6840285610 Ry

     CASE: enthalpy_new < enthalpy_old

     new trust radius        =       0.1217233228 bohr
     new conv_thr            =       0.0000009203 Ry

     new unit-cell volume =   9004.31948 a.u.^3 (  1334.30247 Ang^3 )
     density =      0.26119 g/cm^3

CELL_PARAMETERS (alat= 16.84048341)
   0.984891182  -0.000011379   0.000000000
  -0.492455446   0.852957852   0.000000000
   0.000000000   0.000000000   2.244265901

ATOMIC_POSITIONS (angstrom)
Al       0.156763223   2.443647311   0.000000000
Al       4.231850055   2.443296277   0.000000000
Al       6.582556690   1.259948344   0.000000000
Al      -2.193945326   6.515227793   0.000000000
Al       0.005758269   5.070826989   0.000000000
Al       2.194108597   6.334308814   0.000000000
Al       4.382426193   5.070721988   0.000000000



     Writing output data file 2al_planar_2x2_vcr.save/
     NEW-OLD atomic charge density approx. for the potential

     negative rho (up, down):  1.166E-05 0.000E+00
     extrapolated charge   20.75318, renormalised to   21.00000

     total cpu time spent up to now is      196.6 secs

     Self-consistent Calculation

     iteration #  1     ecut=    80.00 Ry     beta= 0.40
     Davidson diagonalization with overlap
     ethr =  1.00E-06,  avg # of iterations =  8.0

     negative rho (up, down):  1.017E-05 0.000E+00

     total cpu time spent up to now is      198.9 secs

     total energy              =     -31.68053041 Ry
     Harris-Foulkes estimate   =     -32.82047893 Ry
     estimated scf accuracy    <       0.00691350 Ry

     iteration #  2     ecut=    80.00 Ry     beta= 0.40
     Davidson diagonalization with overlap
     ethr =  3.29E-05,  avg # of iterations =  5.0

     negative rho (up, down):  9.729E-06 0.000E+00

     total cpu time spent up to now is      200.2 secs

     total energy              =     -31.68590512 Ry
     Harris-Foulkes estimate   =     -31.69058306 Ry
     estimated scf accuracy    <       0.02305355 Ry

     iteration #  3     ecut=    80.00 Ry     beta= 0.40
     Davidson diagonalization with overlap
     ethr =  3.29E-05,  avg # of iterations =  2.0

     negative rho (up, down):  9.398E-06 0.000E+00

     total cpu time spent up to now is      201.5 secs

     total energy              =     -31.68692295 Ry
     Harris-Foulkes estimate   =     -31.68726195 Ry
     estimated scf accuracy    <       0.00330165 Ry

     iteration #  4     ecut=    80.00 Ry     beta= 0.40
     Davidson diagonalization with overlap
     ethr =  1.57E-05,  avg # of iterations =  1.0

     negative rho (up, down):  8.254E-06 0.000E+00

     total cpu time spent up to now is      202.4 secs

     total energy              =     -31.68640480 Ry
     Harris-Foulkes estimate   =     -31.68699516 Ry
     estimated scf accuracy    <       0.00184597 Ry

     iteration #  5     ecut=    80.00 Ry     beta= 0.40
     Davidson diagonalization with overlap
     ethr =  8.79E-06,  avg # of iterations =  4.0

     negative rho (up, down):  8.244E-06 0.000E+00

     total cpu time spent up to now is      203.8 secs

     total energy              =     -31.68683047 Ry
     Harris-Foulkes estimate   =     -31.68683763 Ry
     estimated scf accuracy    <       0.00013522 Ry

     iteration #  6     ecut=    80.00 Ry     beta= 0.40
     Davidson diagonalization with overlap
     ethr =  6.44E-07,  avg # of iterations =  3.0

     negative rho (up, down):  8.229E-06 0.000E+00

     total cpu time spent up to now is      205.0 secs

     total energy              =     -31.68685676 Ry
     Harris-Foulkes estimate   =     -31.68686406 Ry
     estimated scf accuracy    <       0.00016113 Ry

     iteration #  7     ecut=    80.00 Ry     beta= 0.40
     Davidson diagonalization with overlap
     ethr =  6.44E-07,  avg # of iterations =  1.0

     negative rho (up, down):  7.887E-06 0.000E+00

     total cpu time spent up to now is      206.0 secs

     total energy              =     -31.68678253 Ry
     Harris-Foulkes estimate   =     -31.68685789 Ry
     estimated scf accuracy    <       0.00014089 Ry

     iteration #  8     ecut=    80.00 Ry     beta= 0.40
     Davidson diagonalization with overlap
     ethr =  6.44E-07,  avg # of iterations =  5.0

     negative rho (up, down):  7.756E-06 0.000E+00

     total cpu time spent up to now is      207.6 secs

     total energy              =     -31.68684107 Ry
     Harris-Foulkes estimate   =     -31.68683631 Ry
     estimated scf accuracy    <       0.00006592 Ry

     iteration #  9     ecut=    80.00 Ry     beta= 0.40
     Davidson diagonalization with overlap
     ethr =  3.14E-07,  avg # of iterations =  1.0

     negative rho (up, down):  7.804E-06 0.000E+00

     total cpu time spent up to now is      208.5 secs

     total energy              =     -31.68682565 Ry
     Harris-Foulkes estimate   =     -31.68684281 Ry
     estimated scf accuracy    <       0.00007634 Ry

     iteration # 10     ecut=    80.00 Ry     beta= 0.40
     Davidson diagonalization with overlap
     ethr =  3.14E-07,  avg # of iterations =  1.0

     negative rho (up, down):  7.889E-06 0.000E+00

     total cpu time spent up to now is      209.8 secs

     total energy              =     -31.68681945 Ry
     Harris-Foulkes estimate   =     -31.68682820 Ry
     estimated scf accuracy    <       0.00002418 Ry

     iteration # 11     ecut=    80.00 Ry     beta= 0.40
     Davidson diagonalization with overlap
     ethr =  1.15E-07,  avg # of iterations =  5.0

     negative rho (up, down):  7.829E-06 0.000E+00

     total cpu time spent up to now is      211.1 secs

     total energy              =     -31.68682289 Ry
     Harris-Foulkes estimate   =     -31.68682924 Ry
     estimated scf accuracy    <       0.00000871 Ry

     iteration # 12     ecut=    80.00 Ry     beta= 0.40
     Davidson diagonalization with overlap
     ethr =  4.15E-08,  avg # of iterations =  5.0

     negative rho (up, down):  7.834E-06 0.000E+00

     total cpu time spent up to now is      212.6 secs

     total energy              =     -31.68683286 Ry
     Harris-Foulkes estimate   =     -31.68683065 Ry
     estimated scf accuracy    <       0.00001898 Ry

     iteration # 13     ecut=    80.00 Ry     beta= 0.40
     Davidson diagonalization with overlap
     ethr =  4.15E-08,  avg # of iterations =  1.0

     negative rho (up, down):  7.879E-06 0.000E+00

     total cpu time spent up to now is      213.7 secs

     total energy              =     -31.68683029 Ry
     Harris-Foulkes estimate   =     -31.68683310 Ry
     estimated scf accuracy    <       0.00002719 Ry

     iteration # 14     ecut=    80.00 Ry     beta= 0.40
     Davidson diagonalization with overlap
     ethr =  4.15E-08,  avg # of iterations =  1.0

     negative rho (up, down):  7.940E-06 0.000E+00

     total cpu time spent up to now is      214.6 secs

     total energy              =     -31.68682542 Ry
     Harris-Foulkes estimate   =     -31.68683056 Ry
     estimated scf accuracy    <       0.00001665 Ry

     iteration # 15     ecut=    80.00 Ry     beta= 0.40
     Davidson diagonalization with overlap
     ethr =  4.15E-08,  avg # of iterations =  4.0

     negative rho (up, down):  7.978E-06 0.000E+00

     total cpu time spent up to now is      216.0 secs

     End of self-consistent calculation

          k = 0.0000 0.0000 0.0000 (111965 PWs)   bands (ev):

    -9.6314  -7.9329  -7.9321  -7.4435  -6.5987  -6.5979  -4.6605  -3.7828
    -3.0884  -2.6088  -2.6086  -2.1198  -2.1192  -1.6724  -0.9037

     the Fermi energy is    -2.4861 ev

!    total energy              =     -31.68682694 Ry
     Harris-Foulkes estimate   =     -31.68682737 Ry
     estimated scf accuracy    <       0.00000062 Ry

     The total energy is the sum of the following terms:

     one-electron contribution =    -105.82668891 Ry
     hartree contribution      =      55.01399553 Ry
     xc contribution           =     -13.73083851 Ry
     ewald contribution        =      32.87818518 Ry
     smearing contrib. (-TS)   =      -0.02148024 Ry

     convergence has been achieved in  15 iterations

     negative rho (up, down):  7.978E-06 0.000E+00

     Forces acting on atoms (cartesian axes, Ry/au):

     atom    1 type  1   force =    -0.00125210    0.00072235    0.00000000
     atom    2 type  1   force =     0.00124205    0.00071710    0.00000000
     atom    3 type  1   force =     0.00000436    0.01364971    0.00000000
     atom    4 type  1   force =    -0.00000047   -0.00144553    0.00000000
     atom    5 type  1   force =    -0.01180484   -0.00681553    0.00000000
     atom    6 type  1   force =    -0.00001216   -0.00000702    0.00000000
     atom    7 type  1   force =     0.01182317   -0.00682108    0.00000000

     Total force =     0.023763     Total SCF correction =     0.000530


     Computing stress (Cartesian axis) and pressure


     negative rho (up, down):  7.978E-06 0.000E+00
          total   stress  (Ry/bohr**3)                   (kbar)     P=   -2.48
  -0.00002529  -0.00000005   0.00000000         -3.72     -0.01      0.00
  -0.00000005  -0.00002522   0.00000000         -0.01     -3.71      0.00
   0.00000000   0.00000000  -0.00000001          0.00      0.00     -0.00


     number of scf cycles    =   8
     number of bfgs steps    =   7

     enthalpy old            =     -31.6840285610 Ry
     enthalpy new            =     -31.6868269438 Ry

     CASE: enthalpy_new < enthalpy_old

     new trust radius        =       0.1815194311 bohr
     new conv_thr            =       0.0000010000 Ry

     new unit-cell volume =   8837.20414 a.u.^3 (  1309.53853 Ang^3 )
     density =      0.26613 g/cm^3

CELL_PARAMETERS (alat= 16.84048341)
   0.975703695  -0.000020205   0.000000000
  -0.487869345   0.845014494   0.000000000
   0.000000000   0.000000000   2.244265901

ATOMIC_POSITIONS (angstrom)
Al       0.237764109   2.373469326   0.000000000
Al       4.109940934   2.372911673   0.000000000
Al       6.521049789   1.255912055   0.000000000
Al      -2.173351110   6.549676913   0.000000000
Al      -0.001155183   5.019643270   0.000000000
Al       2.173547533   6.275245295   0.000000000
Al       4.348177208   5.019473269   0.000000000



     Writing output data file 2al_planar_2x2_vcr.save/
     NEW-OLD atomic charge density approx. for the potential

     negative rho (up, down):  1.622E-05 0.000E+00
     extrapolated charge   20.60320, renormalised to   21.00000

     total cpu time spent up to now is      231.2 secs

     Self-consistent Calculation

     iteration #  1     ecut=    80.00 Ry     beta= 0.40
     Davidson diagonalization with overlap
     ethr =  1.00E-06,  avg # of iterations =  9.0

     negative rho (up, down):  1.244E-05 0.000E+00

     total cpu time spent up to now is      233.7 secs

     total energy              =     -31.67452708 Ry
     Harris-Foulkes estimate   =     -33.53639246 Ry
     estimated scf accuracy    <       0.01669287 Ry

     iteration #  2     ecut=    80.00 Ry     beta= 0.40
     Davidson diagonalization with overlap
     ethr =  7.95E-05,  avg # of iterations =  5.0

     negative rho (up, down):  1.142E-05 0.000E+00

     total cpu time spent up to now is      235.3 secs

     total energy              =     -31.68755393 Ry
     Harris-Foulkes estimate   =     -31.69930631 Ry
     estimated scf accuracy    <       0.05895262 Ry

     iteration #  3     ecut=    80.00 Ry     beta= 0.40
     Davidson diagonalization with overlap
     ethr =  7.95E-05,  avg # of iterations =  2.0

     negative rho (up, down):  1.059E-05 0.000E+00

     total cpu time spent up to now is      236.3 secs

     total energy              =     -31.69011467 Ry
     Harris-Foulkes estimate   =     -31.69098654 Ry
     estimated scf accuracy    <       0.00833033 Ry

     iteration #  4     ecut=    80.00 Ry     beta= 0.40
     Davidson diagonalization with overlap
     ethr =  3.97E-05,  avg # of iterations =  1.0

     negative rho (up, down):  8.230E-06 0.000E+00

     total cpu time spent up to now is      237.4 secs

     total energy              =     -31.68893464 Ry
     Harris-Foulkes estimate   =     -31.69030778 Ry
     estimated scf accuracy    <       0.00455797 Ry

     iteration #  5     ecut=    80.00 Ry     beta= 0.40
     Davidson diagonalization with overlap
     ethr =  2.17E-05,  avg # of iterations =  4.0

     negative rho (up, down):  8.198E-06 0.000E+00

     total cpu time spent up to now is      238.7 secs

     total energy              =     -31.68996243 Ry
     Harris-Foulkes estimate   =     -31.68998302 Ry
     estimated scf accuracy    <       0.00033258 Ry

     iteration #  6     ecut=    80.00 Ry     beta= 0.40
     Davidson diagonalization with overlap
     ethr =  1.58E-06,  avg # of iterations =  3.0

     negative rho (up, down):  8.164E-06 0.000E+00

     total cpu time spent up to now is      239.9 secs

     total energy              =     -31.69000145 Ry
     Harris-Foulkes estimate   =     -31.69003927 Ry
     estimated scf accuracy    <       0.00037362 Ry

     iteration #  7     ecut=    80.00 Ry     beta= 0.40
     Davidson diagonalization with overlap
     ethr =  1.58E-06,  avg # of iterations =  1.0

     negative rho (up, down):  7.157E-06 0.000E+00

     total cpu time spent up to now is      241.1 secs

     total energy              =     -31.68983904 Ry
     Harris-Foulkes estimate   =     -31.69000797 Ry
     estimated scf accuracy    <       0.00026881 Ry

     iteration #  8     ecut=    80.00 Ry     beta= 0.40
     Davidson diagonalization with overlap
     ethr =  1.28E-06,  avg # of iterations =  5.0

     negative rho (up, down):  7.347E-06 0.000E+00

     total cpu time spent up to now is      242.4 secs

     total energy              =     -31.68991678 Ry
     Harris-Foulkes estimate   =     -31.69011389 Ry
     estimated scf accuracy    <       0.00077295 Ry

     iteration #  9     ecut=    80.00 Ry     beta= 0.40
     Davidson diagonalization with overlap
     ethr =  1.28E-06,  avg # of iterations =  4.0

     negative rho (up, down):  7.408E-06 0.000E+00

     total cpu time spent up to now is      243.8 secs

     total energy              =     -31.68995699 Ry
     Harris-Foulkes estimate   =     -31.68997064 Ry
     estimated scf accuracy    <       0.00010070 Ry

     iteration # 10     ecut=    80.00 Ry     beta= 0.40
     Davidson diagonalization with overlap
     ethr =  4.80E-07,  avg # of iterations =  1.0

     negative rho (up, down):  7.637E-06 0.000E+00

     total cpu time spent up to now is      244.8 secs

     total energy              =     -31.68994105 Ry
     Harris-Foulkes estimate   =     -31.68996109 Ry
     estimated scf accuracy    <       0.00004636 Ry

     iteration # 11     ecut=    80.00 Ry     beta= 0.40
     Davidson diagonalization with overlap
     ethr =  2.21E-07,  avg # of iterations =  5.0

     negative rho (up, down):  7.577E-06 0.000E+00

     total cpu time spent up to now is      246.3 secs

     total energy              =     -31.68995519 Ry
     Harris-Foulkes estimate   =     -31.68997439 Ry
     estimated scf accuracy    <       0.00005653 Ry

     iteration # 12     ecut=    80.00 Ry     beta= 0.40
     Davidson diagonalization with overlap
     ethr =  2.21E-07,  avg # of iterations =  3.0

     negative rho (up, down):  7.547E-06 0.000E+00

     total cpu time spent up to now is      247.5 secs

     total energy              =     -31.68995881 Ry
     Harris-Foulkes estimate   =     -31.68996107 Ry
     estimated scf accuracy    <       0.00000400 Ry

     iteration # 13     ecut=    80.00 Ry     beta= 0.40
     Davidson diagonalization with overlap
     ethr =  1.91E-08,  avg # of iterations =  5.0

     negative rho (up, down):  7.591E-06 0.000E+00

     total cpu time spent up to now is      248.9 secs

     total energy              =     -31.68996028 Ry
     Harris-Foulkes estimate   =     -31.68996305 Ry
     estimated scf accuracy    <       0.00001010 Ry

     iteration # 14     ecut=    80.00 Ry     beta= 0.40
     Davidson diagonalization with overlap
     ethr =  1.91E-08,  avg # of iterations =  4.0

     negative rho (up, down):  7.627E-06 0.000E+00

     total cpu time spent up to now is      250.4 secs

     End of self-consistent calculation

          k = 0.0000 0.0000 0.0000 (111965 PWs)   bands (ev):

    -9.6442  -7.8619  -7.8607  -7.4283  -6.6170  -6.6159  -4.9370  -3.7889
    -2.9732  -2.5064  -2.5062  -2.0554  -2.0546  -1.6660  -0.9077

     the Fermi energy is    -2.3964 ev

!    total energy              =     -31.68996131 Ry
     Harris-Foulkes estimate   =     -31.68996137 Ry
     estimated scf accuracy    <       0.00000032 Ry

     The total energy is the sum of the following terms:

     one-electron contribution =    -107.29927461 Ry
     hartree contribution      =      55.75456154 Ry
     xc contribution           =     -13.72313447 Ry
     ewald contribution        =      33.60340972 Ry
     smearing contrib. (-TS)   =      -0.02552350 Ry

     convergence has been achieved in  14 iterations

     negative rho (up, down):  7.627E-06 0.000E+00

     Forces acting on atoms (cartesian axes, Ry/au):

     atom    1 type  1   force =    -0.00576702    0.00334727    0.00000000
     atom    2 type  1   force =     0.00578760    0.00334147    0.00000000
     atom    3 type  1   force =    -0.00004334    0.01898015    0.00000000
     atom    4 type  1   force =     0.00001531   -0.00666803    0.00000000
     atom    5 type  1   force =    -0.01642532   -0.00948316    0.00000000
     atom    6 type  1   force =     0.00001715    0.00000990    0.00000000
     atom    7 type  1   force =     0.01641562   -0.00952761    0.00000000

     Total force =     0.034840     Total SCF correction =     0.000294


     Computing stress (Cartesian axis) and pressure


     negative rho (up, down):  7.627E-06 0.000E+00
          total   stress  (Ry/bohr**3)                   (kbar)     P=   -2.94
  -0.00003003  -0.00000008   0.00000000         -4.42     -0.01      0.00
  -0.00000008  -0.00002993   0.00000000         -0.01     -4.40      0.00
   0.00000000   0.00000000  -0.00000005          0.00      0.00     -0.01


     number of scf cycles    =   9
     number of bfgs steps    =   8

     enthalpy old            =     -31.6868269438 Ry
     enthalpy new            =     -31.6899613095 Ry

     CASE: enthalpy_new < enthalpy_old

     new trust radius        =       0.2676640943 bohr
     new conv_thr            =       0.0000010000 Ry

     new unit-cell volume =   8587.53482 a.u.^3 (  1272.54135 Ang^3 )
     density =      0.27386 g/cm^3

CELL_PARAMETERS (alat= 16.84048341)
   0.961813116  -0.000035517   0.000000000
  -0.480937316   0.833007867   0.000000000
   0.000000000   0.000000000   2.244265901

ATOMIC_POSITIONS (angstrom)
Al       0.347835734   2.274523839   0.000000000
Al       3.938039331   2.273663722   0.000000000
Al       6.428012556   1.257052865   0.000000000
Al      -2.142228828   6.587475221   0.000000000
Al      -0.017910993   4.938636805   0.000000000
Al       2.142495637   6.185984459   0.000000000
Al       4.302646553   4.938329766   0.000000000



     Writing output data file 2al_planar_2x2_vcr.save/
     NEW-OLD atomic charge density approx. for the potential

     negative rho (up, down):  2.009E-05 0.000E+00
     extrapolated charge   20.38996, renormalised to   21.00000

     total cpu time spent up to now is      265.6 secs

     Self-consistent Calculation

     iteration #  1     ecut=    80.00 Ry     beta= 0.40
     Davidson diagonalization with overlap
     ethr =  1.00E-06,  avg # of iterations = 11.0

     negative rho (up, down):  1.443E-05 0.000E+00

     total cpu time spent up to now is      268.3 secs

     total energy              =     -31.66092037 Ry
     Harris-Foulkes estimate   =     -34.59452723 Ry
     estimated scf accuracy    <       0.03345799 Ry

     iteration #  2     ecut=    80.00 Ry     beta= 0.40
     Davidson diagonalization with overlap
     ethr =  1.59E-04,  avg # of iterations =  4.0

     negative rho (up, down):  1.300E-05 0.000E+00

     total cpu time spent up to now is      269.7 secs

     total energy              =     -31.68904189 Ry
     Harris-Foulkes estimate   =     -31.71161366 Ry
     estimated scf accuracy    <       0.11280138 Ry

     iteration #  3     ecut=    80.00 Ry     beta= 0.40
     Davidson diagonalization with overlap
     ethr =  1.59E-04,  avg # of iterations =  2.0

     negative rho (up, down):  1.167E-05 0.000E+00

     total cpu time spent up to now is      271.0 secs

     total energy              =     -31.69375468 Ry
     Harris-Foulkes estimate   =     -31.69552940 Ry
     estimated scf accuracy    <       0.01740235 Ry

     iteration #  4     ecut=    80.00 Ry     beta= 0.40
     Davidson diagonalization with overlap
     ethr =  8.29E-05,  avg # of iterations =  1.0

     negative rho (up, down):  8.403E-06 0.000E+00

     total cpu time spent up to now is      271.9 secs

     total energy              =     -31.69159537 Ry
     Harris-Foulkes estimate   =     -31.69415131 Ry
     estimated scf accuracy    <       0.00989556 Ry

     iteration #  5     ecut=    80.00 Ry     beta= 0.40
     Davidson diagonalization with overlap
     ethr =  4.71E-05,  avg # of iterations =  4.0

     negative rho (up, down):  8.095E-06 0.000E+00

     total cpu time spent up to now is      273.2 secs

     total energy              =     -31.69319662 Ry
     Harris-Foulkes estimate   =     -31.69329916 Ry
     estimated scf accuracy    <       0.00063744 Ry

     iteration #  6     ecut=    80.00 Ry     beta= 0.40
     Davidson diagonalization with overlap
     ethr =  3.04E-06,  avg # of iterations =  4.0

     negative rho (up, down):  7.299E-06 0.000E+00

     total cpu time spent up to now is      274.5 secs

     total energy              =     -31.69324888 Ry
     Harris-Foulkes estimate   =     -31.69333797 Ry
     estimated scf accuracy    <       0.00029718 Ry

     iteration #  7     ecut=    80.00 Ry     beta= 0.40
     Davidson diagonalization with overlap
     ethr =  1.42E-06,  avg # of iterations =  5.0

     negative rho (up, down):  6.969E-06 0.000E+00

     total cpu time spent up to now is      276.0 secs

     total energy              =     -31.69316037 Ry
     Harris-Foulkes estimate   =     -31.69339243 Ry
     estimated scf accuracy    <       0.00055712 Ry

     iteration #  8     ecut=    80.00 Ry     beta= 0.40
     Davidson diagonalization with overlap
     ethr =  1.42E-06,  avg # of iterations =  5.0

     negative rho (up, down):  6.963E-06 0.000E+00

     total cpu time spent up to now is      277.5 secs

     total energy              =     -31.69331951 Ry
     Harris-Foulkes estimate   =     -31.69333882 Ry
     estimated scf accuracy    <       0.00017632 Ry

     iteration #  9     ecut=    80.00 Ry     beta= 0.40
     Davidson diagonalization with overlap
     ethr =  8.40E-07,  avg # of iterations =  1.0

     negative rho (up, down):  7.005E-06 0.000E+00

     total cpu time spent up to now is      278.6 secs

     total energy              =     -31.69328073 Ry
     Harris-Foulkes estimate   =     -31.69332268 Ry
     estimated scf accuracy    <       0.00011182 Ry

     iteration # 10     ecut=    80.00 Ry     beta= 0.40
     Davidson diagonalization with overlap
     ethr =  5.32E-07,  avg # of iterations =  5.0

     negative rho (up, down):  7.009E-06 0.000E+00

     total cpu time spent up to now is      280.0 secs

     total energy              =     -31.69330205 Ry
     Harris-Foulkes estimate   =     -31.69330350 Ry
     estimated scf accuracy    <       0.00000542 Ry

     iteration # 11     ecut=    80.00 Ry     beta= 0.40
     Davidson diagonalization with overlap
     ethr =  2.58E-08,  avg # of iterations =  3.0

     negative rho (up, down):  7.019E-06 0.000E+00

     total cpu time spent up to now is      281.2 secs

     total energy              =     -31.69330318 Ry
     Harris-Foulkes estimate   =     -31.69330344 Ry
     estimated scf accuracy    <       0.00000101 Ry

     iteration # 12     ecut=    80.00 Ry     beta= 0.40
     Davidson diagonalization with overlap
     ethr =  4.81E-09,  avg # of iterations =  5.0

     negative rho (up, down):  7.012E-06 0.000E+00

     total cpu time spent up to now is      282.6 secs

     End of self-consistent calculation

          k = 0.0000 0.0000 0.0000 (111965 PWs)   bands (ev):

    -9.6889  -7.7701  -7.7682  -7.4601  -6.6443  -6.6426  -5.3362  -3.8177
    -2.7879  -2.3797  -2.3793  -1.9658  -1.9646  -1.6922  -0.9056

     the Fermi energy is    -2.2827 ev

!    total energy              =     -31.69330313 Ry
     Harris-Foulkes estimate   =     -31.69330353 Ry
     estimated scf accuracy    <       0.00000050 Ry

     The total energy is the sum of the following terms:

     one-electron contribution =    -109.78782836 Ry
     hartree contribution      =      57.00544593 Ry
     xc contribution           =     -13.72279753 Ry
     ewald contribution        =      34.84452188 Ry
     smearing contrib. (-TS)   =      -0.03264506 Ry

     convergence has been achieved in  12 iterations

     negative rho (up, down):  7.012E-06 0.000E+00

     Forces acting on atoms (cartesian axes, Ry/au):

     atom    1 type  1   force =    -0.01069872    0.00630580    0.00000000
     atom    2 type  1   force =     0.01076401    0.00621461    0.00000000
     atom    3 type  1   force =    -0.00011850    0.02358417    0.00000000
     atom    4 type  1   force =     0.00011162   -0.01241826    0.00000000
     atom    5 type  1   force =    -0.02041893   -0.01178887    0.00000000
     atom    6 type  1   force =    -0.00000472   -0.00000273    0.00000000
     atom    7 type  1   force =     0.02036524   -0.01189471    0.00000000

     Total force =     0.046166     Total SCF correction =     0.000405


     Computing stress (Cartesian axis) and pressure


     negative rho (up, down):  7.012E-06 0.000E+00
          total   stress  (Ry/bohr**3)                   (kbar)     P=   -3.50
  -0.00003585  -0.00000016  -0.00000000         -5.27     -0.02     -0.00
[...]
     atom    2 type  1   force =     0.00189483    0.00109398    0.00000000
     atom    3 type  1   force =    -0.00070962   -0.01042018    0.00000000
     atom    4 type  1   force =     0.00101452   -0.00230087    0.00000000
     atom    5 type  1   force =     0.00860826    0.00496998    0.00000000
     atom    6 type  1   force =     0.00005632    0.00003252    0.00000000
     atom    7 type  1   force =    -0.00937895    0.00459554    0.00000000

     Total force =     0.018287     Total SCF correction =     0.000117


     Computing stress (Cartesian axis) and pressure


     negative rho (up, down):  5.221E-06 0.000E+00
          total   stress  (Ry/bohr**3)                   (kbar)     P=   -1.49
  -0.00001587  -0.00000099   0.00000000         -2.33     -0.15      0.00
  -0.00000099  -0.00001473   0.00000000         -0.15     -2.17      0.00
   0.00000000   0.00000000   0.00000026          0.00      0.00      0.04


     number of scf cycles    = 297
     number of bfgs steps    =  19

     enthalpy old            =     -31.7355242315 Ry
     enthalpy new            =     -31.7351921184 Ry

     CASE: enthalpy_new > enthalpy_old

     new trust radius        =       0.0024862483 bohr
     new conv_thr            =       0.0000009503 Ry

     new unit-cell volume =   7199.49457 a.u.^3 (  1066.85501 Ang^3 )
     density =      0.32666 g/cm^3

CELL_PARAMETERS (alat= 16.84048341)
   0.880450358  -0.000392926   0.000000000
  -0.440565463   0.763081766   0.000000000
   0.000000000   0.000000000   2.244265901

ATOMIC_POSITIONS (angstrom)
Al       0.567835464   1.933670179   0.000000000
Al       3.352645609   1.935683507   0.000000000
Al       5.885857642   1.460566812   0.000000000
Al      -1.967637324   6.325268113   0.000000000
Al      -0.287622765   4.367481130   0.000000000
Al       1.960528640   5.665485206   0.000000000
Al       4.207817284   4.367050000   0.000000000



     Writing output data file 2al_planar_2x2_vcr.save/
     NEW-OLD atomic charge density approx. for the potential

     negative rho (up, down):  5.241E-06 0.000E+00
     extrapolated charge   21.01250, renormalised to   21.00000

     total cpu time spent up to now is     6431.6 secs

     Self-consistent Calculation

     iteration #  1     ecut=    80.00 Ry     beta= 0.40
     Davidson diagonalization with overlap
     ethr =  1.00E-06,  avg # of iterations =  4.0

     negative rho (up, down):  5.210E-06 0.000E+00

     total cpu time spent up to now is     6433.3 secs

     total energy              =     -31.73485724 Ry
     Harris-Foulkes estimate   =     -31.66352079 Ry
     estimated scf accuracy    <       0.00006681 Ry

     iteration #  2     ecut=    80.00 Ry     beta= 0.40
     Davidson diagonalization with overlap
     ethr =  3.18E-07,  avg # of iterations =  2.0

     negative rho (up, down):  5.207E-06 0.000E+00

     total cpu time spent up to now is     6434.8 secs

     total energy              =     -31.73489433 Ry
     Harris-Foulkes estimate   =     -31.73490527 Ry
     estimated scf accuracy    <       0.00004125 Ry

     iteration #  3     ecut=    80.00 Ry     beta= 0.40
     Davidson diagonalization with overlap
     ethr =  1.96E-07,  avg # of iterations =  1.0

     negative rho (up, down):  5.207E-06 0.000E+00

     total cpu time spent up to now is     6436.0 secs

     total energy              =     -31.73489659 Ry
     Harris-Foulkes estimate   =     -31.73489742 Ry
     estimated scf accuracy    <       0.00000600 Ry

     iteration #  4     ecut=    80.00 Ry     beta= 0.40
     Davidson diagonalization with overlap
     ethr =  2.86E-08,  avg # of iterations =  1.0

     negative rho (up, down):  5.214E-06 0.000E+00

     total cpu time spent up to now is     6437.2 secs

     total energy              =     -31.73489549 Ry
     Harris-Foulkes estimate   =     -31.73489682 Ry
     estimated scf accuracy    <       0.00000311 Ry

     iteration #  5     ecut=    80.00 Ry     beta= 0.40
     Davidson diagonalization with overlap
     ethr =  1.48E-08,  avg # of iterations =  2.0

     negative rho (up, down):  5.223E-06 0.000E+00

     total cpu time spent up to now is     6438.2 secs

     End of self-consistent calculation

          k = 0.0000 0.0000 0.0000 (111965 PWs)   bands (ev):

   -10.5892  -8.0269  -8.0136  -7.9289  -7.0811  -6.8513  -6.8399  -4.3254
    -2.1272  -2.0017  -1.9989  -1.8658  -1.8567  -1.7807  -1.0058

     the Fermi energy is    -2.0045 ev

!    total energy              =     -31.73489621 Ry
     Harris-Foulkes estimate   =     -31.73489631 Ry
     estimated scf accuracy    <       0.00000020 Ry

     The total energy is the sum of the following terms:

     one-electron contribution =    -129.44220331 Ry
     hartree contribution      =      66.75420104 Ry
     xc contribution           =     -13.96379876 Ry
     ewald contribution        =      44.98697029 Ry
     smearing contrib. (-TS)   =      -0.07006546 Ry

     convergence has been achieved in   5 iterations

     negative rho (up, down):  5.223E-06 0.000E+00

     Forces acting on atoms (cartesian axes, Ry/au):

     atom    1 type  1   force =    -0.00147870    0.00209505    0.00000000
     atom    2 type  1   force =     0.00204271    0.00117936    0.00000000
     atom    3 type  1   force =    -0.00085343   -0.01128667    0.00000000
     atom    4 type  1   force =     0.00107502   -0.00232812    0.00000000
     atom    5 type  1   force =     0.00939572    0.00542462    0.00000000
     atom    6 type  1   force =     0.00001993    0.00001151    0.00000000
     atom    7 type  1   force =    -0.01020125    0.00490424    0.00000000

     Total force =     0.019816     Total SCF correction =     0.000087


     Computing stress (Cartesian axis) and pressure


     negative rho (up, down):  5.223E-06 0.000E+00
          total   stress  (Ry/bohr**3)                   (kbar)     P=   -1.62
  -0.00001688  -0.00000085   0.00000000         -2.48     -0.13      0.00
  -0.00000085  -0.00001590   0.00000000         -0.13     -2.34      0.00
   0.00000000   0.00000000  -0.00000019          0.00      0.00     -0.03


     number of scf cycles    = 298
     number of bfgs steps    =  19

     enthalpy old            =     -31.7355242315 Ry
     enthalpy new            =     -31.7348962070 Ry

     CASE: enthalpy_new > enthalpy_old

     new trust radius        =       0.0001622445 bohr
     new conv_thr            =       0.0000009503 Ry

     new unit-cell volume =   7200.90752 a.u.^3 (  1067.06439 Ang^3 )
     density =      0.32660 g/cm^3

CELL_PARAMETERS (alat= 16.84048341)
   0.880539261  -0.000388614   0.000000000
  -0.440606180   0.763152289   0.000000000
   0.000000000   0.000000000   2.244265901

ATOMIC_POSITIONS (angstrom)
Al       0.567886134   1.933695806   0.000000000
Al       3.352934811   1.935850480   0.000000000
Al       5.886572075   1.461960166   0.000000000
Al      -1.967952646   6.325927659   0.000000000
Al      -0.288642678   4.367311267   0.000000000
Al       1.960759745   5.666037621   0.000000000
Al       4.209381180   4.366972043   0.000000000



     Writing output data file 2al_planar_2x2_vcr.save/
     NEW-OLD atomic charge density approx. for the potential

     negative rho (up, down):  5.225E-06 0.000E+00
     extrapolated charge   21.00412, renormalised to   21.00000

     total cpu time spent up to now is     6454.7 secs

     Self-consistent Calculation

     iteration #  1     ecut=    80.00 Ry     beta= 0.40
     Davidson diagonalization with overlap
     ethr =  1.00E-06,  avg # of iterations =  1.0

     Threshold (ethr) on eigenvalues was too large:
     Diagonalizing with lowered threshold

     Davidson diagonalization with overlap
     ethr =  9.59E-09,  avg # of iterations =  5.0

     negative rho (up, down):  5.212E-06 0.000E+00

     total cpu time spent up to now is     6457.3 secs

     total energy              =     -31.73479083 Ry
     Harris-Foulkes estimate   =     -31.71128271 Ry
     estimated scf accuracy    <       0.00000457 Ry

     iteration #  2     ecut=    80.00 Ry     beta= 0.40
     Davidson diagonalization with overlap
     ethr =  2.18E-08,  avg # of iterations =  5.0

     negative rho (up, down):  5.214E-06 0.000E+00

     total cpu time spent up to now is     6458.7 secs

     total energy              =     -31.73479377 Ry
     Harris-Foulkes estimate   =     -31.73479507 Ry
     estimated scf accuracy    <       0.00000542 Ry

     iteration #  3     ecut=    80.00 Ry     beta= 0.40
     Davidson diagonalization with overlap
     ethr =  2.18E-08,  avg # of iterations =  1.0

     negative rho (up, down):  5.214E-06 0.000E+00

     total cpu time spent up to now is     6459.8 secs

     total energy              =     -31.73479401 Ry
     Harris-Foulkes estimate   =     -31.73479411 Ry
     estimated scf accuracy    <       0.00000098 Ry

     iteration #  4     ecut=    80.00 Ry     beta= 0.40
     Davidson diagonalization with overlap
     ethr =  4.69E-09,  avg # of iterations =  2.0

     negative rho (up, down):  5.215E-06 0.000E+00

     total cpu time spent up to now is     6460.8 secs

     End of self-consistent calculation

          k = 0.0000 0.0000 0.0000 (111965 PWs)   bands (ev):

   -10.5918  -8.0305  -8.0170  -7.9306  -7.0863  -6.8530  -6.8411  -4.3270
    -2.1296  -2.0046  -2.0021  -1.8682  -1.8589  -1.7822  -1.0134

     the Fermi energy is    -2.0070 ev

!    total energy              =     -31.73479363 Ry
     Harris-Foulkes estimate   =     -31.73479404 Ry
     estimated scf accuracy    <       0.00000062 Ry

     The total energy is the sum of the following terms:

     one-electron contribution =    -129.41979789 Ry
     hartree contribution      =      66.74538351 Ry
     xc contribution           =     -13.96365919 Ry
     ewald contribution        =      44.97325655 Ry
     smearing contrib. (-TS)   =      -0.06997661 Ry

     convergence has been achieved in   4 iterations

     negative rho (up, down):  5.215E-06 0.000E+00

     Forces acting on atoms (cartesian axes, Ry/au):

     atom    1 type  1   force =    -0.00147781    0.00215024    0.00000000
     atom    2 type  1   force =     0.00209242    0.00120806    0.00000000
     atom    3 type  1   force =    -0.00090713   -0.01159195    0.00000000
     atom    4 type  1   force =     0.00112325   -0.00235494    0.00000000
     atom    5 type  1   force =     0.00965931    0.00557680    0.00000000
     atom    6 type  1   force =     0.00000244    0.00000141    0.00000000
     atom    7 type  1   force =    -0.01049249    0.00501038    0.00000000

     Total force =     0.020353     Total SCF correction =     0.000210


     Computing stress (Cartesian axis) and pressure


     negative rho (up, down):  5.215E-06 0.000E+00
          total   stress  (Ry/bohr**3)                   (kbar)     P=   -1.63
  -0.00001723  -0.00000081   0.00000000         -2.53     -0.12      0.00
  -0.00000081  -0.00001629   0.00000000         -0.12     -2.40      0.00
   0.00000000   0.00000000   0.00000036          0.00      0.00      0.05


     number of scf cycles    = 299
     number of bfgs steps    =  19

     enthalpy old            =     -31.7355242315 Ry
     enthalpy new            =     -31.7347936284 Ry

     CASE: enthalpy_new > enthalpy_old

     new trust radius        =       0.0000006770 bohr

     trust_radius < trust_radius_min

     resetting bfgs history

     new conv_thr            =       0.0000009503 Ry

     new unit-cell volume =   7195.20714 a.u.^3 (  1066.21968 Ang^3 )
     density =      0.32686 g/cm^3

CELL_PARAMETERS (alat= 16.84048341)
   0.880180541  -0.000406015   0.000000000
  -0.440441890   0.762867731   0.000000000
   0.000000000   0.000000000   2.244265901

ATOMIC_POSITIONS (angstrom)
Al       0.567681653   1.933592212   0.000000000
Al       3.351767814   1.935176702   0.000000000
Al       5.883689574   1.456339460   0.000000000
Al      -1.966680510   6.323266477   0.000000000
Al      -0.284528647   4.367995917   0.000000000
Al       1.959827251   5.663808646   0.000000000
Al       4.203072255   4.367286065   0.000000000



     Writing output data file 2al_planar_2x2_vcr.save/
     NEW-OLD atomic charge density approx. for the potential

     negative rho (up, down):  5.251E-06 0.000E+00
     extrapolated charge   20.98338, renormalised to   21.00000

     total cpu time spent up to now is     6476.1 secs

     Self-consistent Calculation

     iteration #  1     ecut=    80.00 Ry     beta= 0.40
     Davidson diagonalization with overlap
     ethr =  1.00E-06,  avg # of iterations =  4.0

     negative rho (up, down):  5.254E-06 0.000E+00

     total cpu time spent up to now is     6477.5 secs

     total energy              =     -31.73513834 Ry
     Harris-Foulkes estimate   =     -31.83018716 Ry
     estimated scf accuracy    <       0.00007159 Ry

     iteration #  2     ecut=    80.00 Ry     beta= 0.40
     Davidson diagonalization with overlap
     ethr =  3.41E-07,  avg # of iterations =  3.0

     negative rho (up, down):  5.251E-06 0.000E+00

     total cpu time spent up to now is     6478.9 secs

     total energy              =     -31.73519081 Ry
     Harris-Foulkes estimate   =     -31.73520598 Ry
     estimated scf accuracy    <       0.00006358 Ry

     iteration #  3     ecut=    80.00 Ry     beta= 0.40
     Davidson diagonalization with overlap
     ethr =  3.03E-07,  avg # of iterations =  1.0

     negative rho (up, down):  5.248E-06 0.000E+00

     total cpu time spent up to now is     6479.9 secs

     total energy              =     -31.73519303 Ry
     Harris-Foulkes estimate   =     -31.73519452 Ry
     estimated scf accuracy    <       0.00001265 Ry

     iteration #  4     ecut=    80.00 Ry     beta= 0.40
     Davidson diagonalization with overlap
     ethr =  6.02E-08,  avg # of iterations =  1.0

     negative rho (up, down):  5.232E-06 0.000E+00

     total cpu time spent up to now is     6480.8 secs

     total energy              =     -31.73519060 Ry
     Harris-Foulkes estimate   =     -31.73519337 Ry
     estimated scf accuracy    <       0.00000710 Ry

     iteration #  5     ecut=    80.00 Ry     beta= 0.40
     Davidson diagonalization with overlap
     ethr =  3.38E-08,  avg # of iterations =  2.0

     negative rho (up, down):  5.221E-06 0.000E+00

     total cpu time spent up to now is     6481.9 secs

     End of self-consistent calculation

          k = 0.0000 0.0000 0.0000 (111965 PWs)   bands (ev):

   -10.5909  -8.0250  -8.0129  -7.9334  -7.0743  -6.8563  -6.8466  -4.3264
    -2.1300  -2.0028  -1.9992  -1.8646  -1.8562  -1.7830  -0.9913

     the Fermi energy is    -2.0054 ev

!    total energy              =     -31.73519210 Ry
     Harris-Foulkes estimate   =     -31.73519230 Ry
     estimated scf accuracy    <       0.00000033 Ry

     The total energy is the sum of the following terms:

     one-electron contribution =    -129.52866455 Ry
     hartree contribution      =      66.80236358 Ry
     xc contribution           =     -13.96745233 Ry
     ewald contribution        =      45.02869098 Ry
     smearing contrib. (-TS)   =      -0.07012978 Ry

     convergence has been achieved in   5 iterations

     negative rho (up, down):  5.221E-06 0.000E+00

     Forces acting on atoms (cartesian axes, Ry/au):

     atom    1 type  1   force =    -0.00148354    0.00202039    0.00000000
     atom    2 type  1   force =     0.00190481    0.00109974    0.00000000
     atom    3 type  1   force =    -0.00071063   -0.01042983    0.00000000
     atom    4 type  1   force =     0.00100794   -0.00229498    0.00000000
     atom    5 type  1   force =     0.00861090    0.00497151    0.00000000
     atom    6 type  1   force =     0.00005833    0.00003368    0.00000000
     atom    7 type  1   force =    -0.00938781    0.00459949    0.00000000

     Total force =     0.018299     Total SCF correction =     0.000114


     Computing stress (Cartesian axis) and pressure


     negative rho (up, down):  5.221E-06 0.000E+00
          total   stress  (Ry/bohr**3)                   (kbar)     P=   -1.49
  -0.00001586  -0.00000098   0.00000000         -2.33     -0.14      0.00
  -0.00000098  -0.00001473   0.00000000         -0.14     -2.17      0.00
  -0.00000000  -0.00000000   0.00000027         -0.00     -0.00      0.04


     number of scf cycles    = 300
     number of bfgs steps    =  19

     enthalpy old            =     -31.7355242315 Ry
     enthalpy new            =     -31.7351921044 Ry

     CASE: enthalpy_new > enthalpy_old

     new trust radius        =       0.0024861982 bohr
     new conv_thr            =       0.0000009503 Ry

     new unit-cell volume =   7199.49460 a.u.^3 (  1066.85502 Ang^3 )
     density =      0.32666 g/cm^3

CELL_PARAMETERS (alat= 16.84048341)
   0.880450360  -0.000392926   0.000000000
  -0.440565464   0.763081768   0.000000000
   0.000000000   0.000000000   2.244265901

ATOMIC_POSITIONS (angstrom)
Al       0.567835465   1.933670180   0.000000000
Al       3.352645615   1.935683510   0.000000000
Al       5.885857658   1.460566842   0.000000000
Al      -1.967637331   6.325268127   0.000000000
Al      -0.287622787   4.367481126   0.000000000
Al       1.960528645   5.665485218   0.000000000
Al       4.207817318   4.367049999   0.000000000



     Writing output data file 2al_planar_2x2_vcr.save/
     NEW-OLD atomic charge density approx. for the potential

     negative rho (up, down):  5.241E-06 0.000E+00
     extrapolated charge   21.01250, renormalised to   21.00000

     Writing output data file 2al_planar_2x2_vcr.save/
 
     init_run     :      5.47s CPU      5.65s WALL (       1 calls)
     electrons    :   1907.17s CPU   1928.56s WALL (     300 calls)
     update_pot   :   1691.21s CPU   1698.94s WALL (     300 calls)
     forces       :    916.09s CPU    918.82s WALL (     300 calls)
     stress       :   1869.47s CPU   1890.49s WALL (     300 calls)

     Called by init_run:
     wfcinit      :      0.51s CPU      0.54s WALL (       1 calls)
     potinit      :      2.02s CPU      2.06s WALL (       1 calls)
     hinit0       :      2.63s CPU      2.73s WALL (       1 calls)

     Called by electrons:
     c_bands      :   1271.26s CPU   1278.60s WALL (    1672 calls)
     sum_band     :    243.14s CPU    244.69s WALL (    1672 calls)
     v_of_rho     :    386.99s CPU    388.96s WALL (    1881 calls)
     mix_rho      :     41.89s CPU     42.55s WALL (    1672 calls)

     Called by c_bands:
     init_us_2    :     34.27s CPU     34.54s WALL (    3345 calls)
     cegterg      :    980.51s CPU    985.19s WALL (    1672 calls)

     Called by sum_band:

     Called by *egterg:
     h_psi        :    874.83s CPU    878.95s WALL (    5843 calls)
     g_psi        :      6.65s CPU      6.69s WALL (    4170 calls)
     cdiaghg      :      3.25s CPU      3.29s WALL (    5451 calls)

     Called by h_psi:
     h_psi:pot    :    872.57s CPU    876.48s WALL (    5843 calls)
     h_psi:calbec :     81.06s CPU     81.43s WALL (    5843 calls)
     vloc_psi     :    709.59s CPU    712.70s WALL (    5843 calls)
     add_vuspsi   :     81.86s CPU     82.32s WALL (    5843 calls)

     General routines
     calbec       :    108.04s CPU    108.64s WALL (    7343 calls)
     fft          :    391.22s CPU    393.21s WALL (   26704 calls)
     ffts         :     19.64s CPU     19.70s WALL (    1672 calls)
     fftw         :    804.29s CPU    808.07s WALL (  156228 calls)
 
     Parallel routines
     fft_scatt_xy :     95.37s CPU     95.85s WALL (  184604 calls)
     fft_scatt_yz :    752.50s CPU    755.66s WALL (  184604 calls)
 
     PWSCF        :     1h46m CPU       46h 1m WALL

      48h
 
   This run was terminated on:  13: 1:10  25Nov2020            

=------------------------------------------------------------------------------=
   JOB DONE.
=------------------------------------------------------------------------------=
