
     Program PWSCF v.6.3MaX starts on 25Nov2020 at 11:12:51 

     This program is part of the open-source Quantum ESPRESSO suite
     for quantum simulation of materials; please cite
         "P. Giannozzi et al., J. Phys.:Condens. Matter 21 395502 (2009);
         "P. Giannozzi et al., J. Phys.:Condens. Matter 29 465901 (2017);
          URL http://www.quantum-espresso.org", 
     in publications or presentations arising from this work. More details at
     http://www.quantum-espresso.org/quote

     Parallel version (MPI), running on     8 processors

     MPI processes distributed on     4 nodes
     R & G space division:  proc/nbgrp/npool/nimage =       8
     Waiting for input...
     Reading input from standard input

     Current dimensions of program PWSCF are:
     Max number of different atomic species (ntypx) = 10
     Max number of k-points (npk) =  40000
     Max angular momentum in pseudopotentials (lmaxx) =  3

     Subspace diagonalization in iterative solution of the eigenvalue problem:
     a serial algorithm will be used

     Message from routine find_sym:
     Not a group! Trying with lower acceptance parameter...
     Message from routine find_sym:
     Symmetry operations form a group
 
     Parallelization info
     --------------------
     sticks:   dense  smooth     PW     G-vecs:    dense   smooth      PW
     Min         778     778    194               112122   112122   13992
     Max         779     779    195               112130   112130   14001
     Sum        6229    6229   1555               896999   896999  111965
 


     bravais-lattice index     =            4
     lattice parameter (alat)  =      16.8405  a.u.
     unit-cell volume          =    9282.5779 (a.u.)^3
     number of atoms/cell      =            7
     number of atomic types    =            1
     number of electrons       =        21.00
     number of Kohn-Sham states=           15
     kinetic-energy cutoff     =      80.0000  Ry
     charge density cutoff     =     320.0000  Ry
     convergence threshold     =      1.0E-06
     mixing beta               =       0.4000
     number of iterations used =            8  plain     mixing
     Exchange-correlation      = PBE ( 1  4  3  4 0 0)
     nstep                     =          300


     celldm(1)=  16.840483  celldm(2)=   0.000000  celldm(3)=   2.244266
     celldm(4)=   0.000000  celldm(5)=   0.000000  celldm(6)=   0.000000

     crystal axes: (cart. coord. in units of alat)
               a(1) = (   1.000000   0.000000   0.000000 )  
               a(2) = (  -0.500000   0.866025   0.000000 )  
               a(3) = (   0.000000   0.000000   2.244266 )  

     reciprocal axes: (cart. coord. in units 2 pi/alat)
               b(1) = (  1.000000  0.577350  0.000000 )  
               b(2) = (  0.000000  1.154701  0.000000 )  
               b(3) = (  0.000000  0.000000  0.445580 )  


     PseudoPot. # 1 for Al read from file:
     ./Al.upf
     MD5 check sum: 4974d48a734c9d7d1eb6780a1419d19d
     Pseudo is Norm-conserving + core correction, Zval =  3.0
     Generated using ONCVPSP code by D. R. Hamann
     Using radial grid of 1876 points,  6 beta functions with: 
                l(1) =   0
                l(2) =   0
                l(3) =   1
                l(4) =   1
                l(5) =   2
                l(6) =   2

     atomic species   valence    mass     pseudopotential
        Al             3.00    29.98200     Al( 1.00)

      4 Sym. Ops. (no inversion) found ( 2 have fractional translation)



   Cartesian axes

     site n.     atom                  positions (alat units)
         1           Al  tau(   1) = (   0.2500030   0.1443392   0.0000000  )
         2           Al  tau(   2) = (   0.5000023   0.2886806   0.0000000  )
         3           Al  tau(   3) = (   0.7500053   0.1443413   0.0000000  )
         4           Al  tau(   4) = (  -0.2499995   0.7216943   0.0000000  )
         5           Al  tau(   5) = (   0.0000036   0.5773550   0.0000000  )
         6           Al  tau(   6) = (   0.2500029   0.7216963   0.0000000  )
         7           Al  tau(   7) = (   0.5000059   0.5773570   0.0000000  )

     number of k points=     1  Methfessel-Paxton smearing, width (Ry)=  0.0500
                       cart. coord. in units 2pi/alat
        k(    1) = (   0.0000000   0.0000000   0.0000000), wk =   2.0000000

     Dense  grid:   896999 G-vectors     FFT dimensions: (  96,  96, 216)

     Estimated max dynamical RAM per process >     127.42 MB

     Estimated total dynamical RAM >    1019.39 MB

     Initial potential from superposition of free atoms

     starting charge   20.98287, renormalised to   21.00000

     negative rho (up, down):  2.280E-05 0.000E+00
     Starting wfcs are   28 randomized atomic wfcs

     total cpu time spent up to now is        5.7 secs

     Self-consistent Calculation

     iteration #  1     ecut=    80.00 Ry     beta= 0.40
     Davidson diagonalization with overlap
     ethr =  1.00E-02,  avg # of iterations =  2.0

     total cpu time spent up to now is        7.0 secs

     total energy              =     -31.66578490 Ry
     Harris-Foulkes estimate   =     -31.75225228 Ry
     estimated scf accuracy    <       0.28965253 Ry

     iteration #  2     ecut=    80.00 Ry     beta= 0.40
     Davidson diagonalization with overlap
     ethr =  1.38E-03,  avg # of iterations =  2.0

     negative rho (up, down):  3.206E-07 0.000E+00

     total cpu time spent up to now is        7.9 secs

     total energy              =     -31.66519570 Ry
     Harris-Foulkes estimate   =     -31.68730978 Ry
     estimated scf accuracy    <       0.06445408 Ry

     iteration #  3     ecut=    80.00 Ry     beta= 0.40
     Davidson diagonalization with overlap
     ethr =  3.07E-04,  avg # of iterations =  2.0

     negative rho (up, down):  1.896E-06 0.000E+00

     total cpu time spent up to now is        8.8 secs

     total energy              =     -31.67542804 Ry
     Harris-Foulkes estimate   =     -31.67778085 Ry
     estimated scf accuracy    <       0.00930194 Ry

     iteration #  4     ecut=    80.00 Ry     beta= 0.40
     Davidson diagonalization with overlap
     ethr =  4.43E-05,  avg # of iterations =  4.0

     negative rho (up, down):  6.759E-06 0.000E+00

     total cpu time spent up to now is        9.9 secs

     total energy              =     -31.67555168 Ry
     Harris-Foulkes estimate   =     -31.67676813 Ry
     estimated scf accuracy    <       0.00265522 Ry

     iteration #  5     ecut=    80.00 Ry     beta= 0.40
     Davidson diagonalization with overlap
     ethr =  1.26E-05,  avg # of iterations =  9.0

     negative rho (up, down):  6.838E-06 0.000E+00

     total cpu time spent up to now is       11.3 secs

     total energy              =     -31.67645654 Ry
     Harris-Foulkes estimate   =     -31.67840943 Ry
     estimated scf accuracy    <       0.00704469 Ry

     iteration #  6     ecut=    80.00 Ry     beta= 0.40
     Davidson diagonalization with overlap
     ethr =  1.26E-05,  avg # of iterations =  2.0

     negative rho (up, down):  7.098E-06 0.000E+00

     total cpu time spent up to now is       12.2 secs

     total energy              =     -31.67634481 Ry
     Harris-Foulkes estimate   =     -31.67690150 Ry
     estimated scf accuracy    <       0.00124112 Ry

     iteration #  7     ecut=    80.00 Ry     beta= 0.40
     Davidson diagonalization with overlap
     ethr =  5.91E-06,  avg # of iterations =  2.0

     negative rho (up, down):  8.852E-06 0.000E+00

     total cpu time spent up to now is       13.3 secs

     total energy              =     -31.67663091 Ry
     Harris-Foulkes estimate   =     -31.67665595 Ry
     estimated scf accuracy    <       0.00011101 Ry

     iteration #  8     ecut=    80.00 Ry     beta= 0.40
     Davidson diagonalization with overlap
     ethr =  5.29E-07,  avg # of iterations =  3.0

     negative rho (up, down):  8.986E-06 0.000E+00

     total cpu time spent up to now is       14.2 secs

     total energy              =     -31.67664620 Ry
     Harris-Foulkes estimate   =     -31.67665694 Ry
     estimated scf accuracy    <       0.00003378 Ry

     iteration #  9     ecut=    80.00 Ry     beta= 0.40
     Davidson diagonalization with overlap
     ethr =  1.61E-07,  avg # of iterations =  4.0

     negative rho (up, down):  9.009E-06 0.000E+00

     total cpu time spent up to now is       15.2 secs

     total energy              =     -31.67664918 Ry
     Harris-Foulkes estimate   =     -31.67665193 Ry
     estimated scf accuracy    <       0.00000780 Ry

     iteration # 10     ecut=    80.00 Ry     beta= 0.40
     Davidson diagonalization with overlap
     ethr =  3.72E-08,  avg # of iterations =  3.0

     negative rho (up, down):  9.043E-06 0.000E+00

     total cpu time spent up to now is       16.3 secs

     total energy              =     -31.67665110 Ry
     Harris-Foulkes estimate   =     -31.67665154 Ry
     estimated scf accuracy    <       0.00000170 Ry

     iteration # 11     ecut=    80.00 Ry     beta= 0.40
     Davidson diagonalization with overlap
     ethr =  8.11E-09,  avg # of iterations =  2.0

     negative rho (up, down):  9.056E-06 0.000E+00

     total cpu time spent up to now is       17.2 secs

     End of self-consistent calculation

          k = 0.0000 0.0000 0.0000 (111965 PWs)   bands (ev):

    -9.6451  -8.0765  -8.0762  -7.5202  -6.5557  -6.5555  -4.1829  -3.7989
    -3.2626  -2.8075  -2.8073  -2.2401  -2.2400  -1.7270  -0.8759

     the Fermi energy is    -2.6602 ev

!    total energy              =     -31.67665136 Ry
     Harris-Foulkes estimate   =     -31.67665136 Ry
     estimated scf accuracy    <       0.00000008 Ry

     The total energy is the sum of the following terms:

     one-electron contribution =    -103.79203719 Ry
     hartree contribution      =      53.98922570 Ry
     xc contribution           =     -13.76116582 Ry
     ewald contribution        =      31.90171854 Ry
     smearing contrib. (-TS)   =      -0.01439258 Ry

     convergence has been achieved in  11 iterations

     negative rho (up, down):  9.056E-06 0.000E+00

     Forces acting on atoms (cartesian axes, Ry/au):

     atom    1 type  1   force =    -0.00932072    0.00540825    0.00000000
     atom    2 type  1   force =     0.00000000    0.00273298    0.00000000
     atom    3 type  1   force =     0.00932072    0.00540825    0.00000000
     atom    4 type  1   force =    -0.00235579   -0.00138877    0.00000000
     atom    5 type  1   force =     0.00000000   -0.01076842    0.00000000
     atom    6 type  1   force =     0.00235579   -0.00138877    0.00000000
     atom    7 type  1   force =     0.00000000   -0.00000351    0.00000000

     Total force =     0.019252     Total SCF correction =     0.000163


     Computing stress (Cartesian axis) and pressure


     negative rho (up, down):  9.056E-06 0.000E+00
          total   stress  (Ry/bohr**3)                   (kbar)     P=   -1.45
  -0.00001476   0.00000000   0.00000000         -2.17      0.00      0.00
   0.00000000  -0.00001476  -0.00000000          0.00     -2.17     -0.00
   0.00000000   0.00000000  -0.00000004          0.00      0.00     -0.01


     BFGS Geometry Optimization

     number of scf cycles    =   1
     number of bfgs steps    =   0

     enthalpy new            =     -31.6766513634 Ry

     new trust radius        =       0.0107761252 bohr
     new conv_thr            =       0.0000010000 Ry

     new unit-cell volume =   9275.72989 a.u.^3 (  1374.52134 Ang^3 )
     density =      0.25355 g/cm^3

CELL_PARAMETERS (alat= 16.84048341)
   0.999631015   0.000000000   0.000000000
  -0.499815508   0.865705943   0.000000000
   0.000000000   0.000000000   2.244265901

ATOMIC_POSITIONS (angstrom)
Al       2.222174179   1.288679804   0.000000000
Al       4.454176081   2.573102776   0.000000000
Al       6.686211826   1.288697993   0.000000000
Al      -2.228319340   6.428343899   0.000000000
Al       0.000032087   5.137562279   0.000000000
Al       2.228349670   6.428362088   0.000000000
Al       4.454208754   5.143274913   0.000000000



     Writing output data file 1al_planar_2x2_vcr.save/
     NEW-OLD atomic charge density approx. for the potential

     negative rho (up, down):  9.063E-06 0.000E+00
     extrapolated charge   20.98451, renormalised to   21.00000

     total cpu time spent up to now is       31.0 secs

     Self-consistent Calculation

     iteration #  1     ecut=    80.00 Ry     beta= 0.40
     Davidson diagonalization with overlap
     ethr =  1.00E-06,  avg # of iterations =  4.0

     negative rho (up, down):  9.092E-06 0.000E+00

     total cpu time spent up to now is       32.1 secs

     total energy              =     -31.67707241 Ry
     Harris-Foulkes estimate   =     -31.74698634 Ry
     estimated scf accuracy    <       0.00005489 Ry

     iteration #  2     ecut=    80.00 Ry     beta= 0.40
     Davidson diagonalization with overlap
     ethr =  2.61E-07,  avg # of iterations =  4.0

     negative rho (up, down):  9.084E-06 0.000E+00

     total cpu time spent up to now is       33.1 secs

     total energy              =     -31.67710621 Ry
     Harris-Foulkes estimate   =     -31.67713197 Ry
     estimated scf accuracy    <       0.00010890 Ry

     iteration #  3     ecut=    80.00 Ry     beta= 0.40
     Davidson diagonalization with overlap
     ethr =  2.61E-07,  avg # of iterations =  2.0

     negative rho (up, down):  9.081E-06 0.000E+00

     total cpu time spent up to now is       34.0 secs

     total energy              =     -31.67711351 Ry
     Harris-Foulkes estimate   =     -31.67711447 Ry
     estimated scf accuracy    <       0.00001209 Ry

     iteration #  4     ecut=    80.00 Ry     beta= 0.40
     Davidson diagonalization with overlap
     ethr =  5.76E-08,  avg # of iterations =  3.0

     negative rho (up, down):  9.054E-06 0.000E+00

     total cpu time spent up to now is       34.8 secs

     total energy              =     -31.67711100 Ry
     Harris-Foulkes estimate   =     -31.67711380 Ry
     estimated scf accuracy    <       0.00000844 Ry

     iteration #  5     ecut=    80.00 Ry     beta= 0.40
     Davidson diagonalization with overlap
     ethr =  4.02E-08,  avg # of iterations =  3.0

     negative rho (up, down):  9.047E-06 0.000E+00

     total cpu time spent up to now is       35.8 secs

     total energy              =     -31.67711303 Ry
     Harris-Foulkes estimate   =     -31.67711303 Ry
     estimated scf accuracy    <       0.00000130 Ry

     iteration #  6     ecut=    80.00 Ry     beta= 0.40
     Davidson diagonalization with overlap
     ethr =  6.18E-09,  avg # of iterations =  4.0

     negative rho (up, down):  9.046E-06 0.000E+00

     total cpu time spent up to now is       36.8 secs

     total energy              =     -31.67711293 Ry
     Harris-Foulkes estimate   =     -31.67711318 Ry
     estimated scf accuracy    <       0.00000121 Ry

     iteration #  7     ecut=    80.00 Ry     beta= 0.40
     Davidson diagonalization with overlap
     ethr =  5.75E-09,  avg # of iterations =  1.0

     negative rho (up, down):  9.042E-06 0.000E+00

     total cpu time spent up to now is       37.6 secs

     End of self-consistent calculation

          k = 0.0000 0.0000 0.0000 (111965 PWs)   bands (ev):

    -9.6446  -8.0722  -8.0722  -7.5185  -6.5581  -6.5579  -4.1958  -3.7983
    -3.2586  -2.8033  -2.8031  -2.2368  -2.2367  -1.7254  -0.8781

     the Fermi energy is    -2.6561 ev

!    total energy              =     -31.67711237 Ry
     Harris-Foulkes estimate   =     -31.67711296 Ry
     estimated scf accuracy    <       0.00000073 Ry

     The total energy is the sum of the following terms:

     one-electron contribution =    -103.83255490 Ry
     hartree contribution      =      54.01162308 Ry
     xc contribution           =     -13.76025166 Ry
     ewald contribution        =      31.91861421 Ry
     smearing contrib. (-TS)   =      -0.01454310 Ry

     convergence has been achieved in   7 iterations

     negative rho (up, down):  9.042E-06 0.000E+00

     Forces acting on atoms (cartesian axes, Ry/au):

     atom    1 type  1   force =    -0.00884923    0.00514806    0.00000000
     atom    2 type  1   force =     0.00000000    0.00186085    0.00000000
     atom    3 type  1   force =     0.00884923    0.00514806    0.00000000
     atom    4 type  1   force =    -0.00161165   -0.00095209    0.00000000
     atom    5 type  1   force =     0.00000000   -0.01022867    0.00000000
     atom    6 type  1   force =     0.00161165   -0.00095209    0.00000000
     atom    7 type  1   force =     0.00000000   -0.00002411    0.00000000

     Total force =     0.018020     Total SCF correction =     0.000477


     Computing stress (Cartesian axis) and pressure


     negative rho (up, down):  9.042E-06 0.000E+00
          total   stress  (Ry/bohr**3)                   (kbar)     P=   -1.48
  -0.00001517  -0.00000000   0.00000000         -2.23     -0.00      0.00
   0.00000000  -0.00001517   0.00000000          0.00     -2.23      0.00
   0.00000000  -0.00000000   0.00000014          0.00     -0.00      0.02


     number of scf cycles    =   2
     number of bfgs steps    =   1

     enthalpy old            =     -31.6766513634 Ry
     enthalpy new            =     -31.6771123737 Ry

     CASE: enthalpy_new < enthalpy_old


     WARNING: bfgs curvature condition failed, Theta= 0.839
     new trust radius        =       0.0161582239 bohr
     new conv_thr            =       0.0000004610 Ry

     new unit-cell volume =   9265.01388 a.u.^3 (  1372.93339 Ang^3 )
     density =      0.25384 g/cm^3

CELL_PARAMETERS (alat= 16.84048341)
   0.999053431   0.000000000   0.000000000
  -0.499526715   0.865205729   0.000000000
   0.000000000   0.000000000   2.244265901

ATOMIC_POSITIONS (angstrom)
Al       2.213501338   1.292228467   0.000000000
Al       4.451602468   2.573455959   0.000000000
Al       6.689737422   1.292246646   0.000000000
Al      -2.228621231   6.423691665   0.000000000
Al       0.000032069   5.126055003   0.000000000
Al       2.228651543   6.423709844   0.000000000
Al       4.451635122   5.140291047   0.000000000



     Writing output data file 1al_planar_2x2_vcr.save/
     NEW-OLD atomic charge density approx. for the potential

     negative rho (up, down):  9.056E-06 0.000E+00
     extrapolated charge   20.97573, renormalised to   21.00000

     total cpu time spent up to now is       51.3 secs

     Self-consistent Calculation

     iteration #  1     ecut=    80.00 Ry     beta= 0.40
     Davidson diagonalization with overlap
     ethr =  1.00E-06,  avg # of iterations =  4.0

     negative rho (up, down):  9.103E-06 0.000E+00

     total cpu time spent up to now is       52.5 secs

     total energy              =     -31.67769568 Ry
     Harris-Foulkes estimate   =     -31.78729983 Ry
     estimated scf accuracy    <       0.00009096 Ry

     iteration #  2     ecut=    80.00 Ry     beta= 0.40
     Davidson diagonalization with overlap
     ethr =  4.33E-07,  avg # of iterations =  5.0

     negative rho (up, down):  9.096E-06 0.000E+00

     total cpu time spent up to now is       53.6 secs

     total energy              =     -31.67776038 Ry
     Harris-Foulkes estimate   =     -31.67781087 Ry
     estimated scf accuracy    <       0.00023050 Ry

     iteration #  3     ecut=    80.00 Ry     beta= 0.40
     Davidson diagonalization with overlap
     ethr =  4.33E-07,  avg # of iterations =  2.0

     negative rho (up, down):  9.093E-06 0.000E+00

     total cpu time spent up to now is       54.5 secs

     total energy              =     -31.67777342 Ry
     Harris-Foulkes estimate   =     -31.67777561 Ry
     estimated scf accuracy    <       0.00003224 Ry

     iteration #  4     ecut=    80.00 Ry     beta= 0.40
     Davidson diagonalization with overlap
     ethr =  1.54E-07,  avg # of iterations =  1.0

     negative rho (up, down):  9.030E-06 0.000E+00

     total cpu time spent up to now is       55.3 secs

     total energy              =     -31.67776552 Ry
     Harris-Foulkes estimate   =     -31.67777390 Ry
     estimated scf accuracy    <       0.00002325 Ry

     iteration #  5     ecut=    80.00 Ry     beta= 0.40
     Davidson diagonalization with overlap
     ethr =  1.11E-07,  avg # of iterations =  4.0

     negative rho (up, down):  9.032E-06 0.000E+00

     total cpu time spent up to now is       56.3 secs

     total energy              =     -31.67777099 Ry
     Harris-Foulkes estimate   =     -31.67777145 Ry
     estimated scf accuracy    <       0.00000338 Ry

     iteration #  6     ecut=    80.00 Ry     beta= 0.40
     Davidson diagonalization with overlap
     ethr =  1.61E-08,  avg # of iterations =  3.0

     negative rho (up, down):  9.031E-06 0.000E+00

     total cpu time spent up to now is       57.2 secs

     total energy              =     -31.67777107 Ry
     Harris-Foulkes estimate   =     -31.67777125 Ry
     estimated scf accuracy    <       0.00000256 Ry

     iteration #  7     ecut=    80.00 Ry     beta= 0.40
     Davidson diagonalization with overlap
     ethr =  1.22E-08,  avg # of iterations =  1.0

     negative rho (up, down):  9.023E-06 0.000E+00

     total cpu time spent up to now is       58.0 secs

     total energy              =     -31.67777004 Ry
     Harris-Foulkes estimate   =     -31.67777109 Ry
     estimated scf accuracy    <       0.00000214 Ry

     iteration #  8     ecut=    80.00 Ry     beta= 0.40
     Davidson diagonalization with overlap
     ethr =  1.02E-08,  avg # of iterations =  2.0

     negative rho (up, down):  9.020E-06 0.000E+00

     total cpu time spent up to now is       59.0 secs

     End of self-consistent calculation

          k = 0.0000 0.0000 0.0000 (111965 PWs)   bands (ev):

    -9.6417  -8.0639  -8.0638  -7.5132  -6.5602  -6.5601  -4.2170  -3.7960
    -3.2509  -2.7939  -2.7937  -2.2304  -2.2304  -1.7214  -0.8803

     the Fermi energy is    -2.6475 ev

!    total energy              =     -31.67777047 Ry
     Harris-Foulkes estimate   =     -31.67777067 Ry
     estimated scf accuracy    <       0.00000029 Ry

     The total energy is the sum of the following terms:

     one-electron contribution =    -103.89350282 Ry
     hartree contribution      =      54.04167470 Ry
     xc contribution           =     -13.75795061 Ry
     ewald contribution        =      31.94688781 Ry
     smearing contrib. (-TS)   =      -0.01487954 Ry

     convergence has been achieved in   8 iterations

     negative rho (up, down):  9.020E-06 0.000E+00

     Forces acting on atoms (cartesian axes, Ry/au):

     atom    1 type  1   force =    -0.00820738    0.00477273    0.00000000
     atom    2 type  1   force =     0.00000000    0.00065753    0.00000000
     atom    3 type  1   force =     0.00820738    0.00477273    0.00000000
     atom    4 type  1   force =    -0.00057424   -0.00034317    0.00000000
     atom    5 type  1   force =     0.00000000   -0.00950014    0.00000000
     atom    6 type  1   force =     0.00057424   -0.00034317    0.00000000
     atom    7 type  1   force =     0.00000000   -0.00001651    0.00000000

     Total force =     0.016488     Total SCF correction =     0.000296


     Computing stress (Cartesian axis) and pressure


     negative rho (up, down):  9.020E-06 0.000E+00
          total   stress  (Ry/bohr**3)                   (kbar)     P=   -1.54
  -0.00001580  -0.00000000   0.00000000         -2.32     -0.00      0.00
  -0.00000000  -0.00001580   0.00000000         -0.00     -2.32      0.00
   0.00000000   0.00000000   0.00000009          0.00      0.00      0.01


     number of scf cycles    =   3
     number of bfgs steps    =   2

     enthalpy old            =     -31.6771123737 Ry
     enthalpy new            =     -31.6777704730 Ry

     CASE: enthalpy_new < enthalpy_old

     new trust radius        =       0.0242233315 bohr
     new conv_thr            =       0.0000006581 Ry

     new unit-cell volume =   9247.84751 a.u.^3 (  1370.38960 Ang^3 )
     density =      0.25431 g/cm^3

CELL_PARAMETERS (alat= 16.84048341)
   0.998127535  -0.000000000   0.000000000
  -0.499063768   0.864403768   0.000000000
   0.000000000   0.000000000   2.244265901

ATOMIC_POSITIONS (angstrom)
Al       2.200376548   1.297462612   0.000000000
Al       4.447476844   2.573052996   0.000000000
Al       6.694610932   1.297480774   0.000000000
Al      -2.228269548   6.416723902   0.000000000
Al       0.000032039   5.108497096   0.000000000
Al       2.228299833   6.416742064   0.000000000
Al       4.447509467   5.135514094   0.000000000



     Writing output data file 1al_planar_2x2_vcr.save/
     NEW-OLD atomic charge density approx. for the potential

     negative rho (up, down):  9.047E-06 0.000E+00
     extrapolated charge   20.96105, renormalised to   21.00000

     total cpu time spent up to now is       73.5 secs

     Self-consistent Calculation

     iteration #  1     ecut=    80.00 Ry     beta= 0.40
     Davidson diagonalization with overlap
     ethr =  1.00E-06,  avg # of iterations =  4.0

     negative rho (up, down):  9.118E-06 0.000E+00

     total cpu time spent up to now is       74.8 secs

     total energy              =     -31.67848781 Ry
     Harris-Foulkes estimate   =     -31.85466460 Ry
     estimated scf accuracy    <       0.00026925 Ry

     iteration #  2     ecut=    80.00 Ry     beta= 0.40
     Davidson diagonalization with overlap
     ethr =  1.28E-06,  avg # of iterations =  5.0

     negative rho (up, down):  9.106E-06 0.000E+00

     total cpu time spent up to now is       75.9 secs

     total energy              =     -31.67866790 Ry
     Harris-Foulkes estimate   =     -31.67880881 Ry
     estimated scf accuracy    <       0.00062391 Ry

     iteration #  3     ecut=    80.00 Ry     beta= 0.40
     Davidson diagonalization with overlap
     ethr =  1.28E-06,  avg # of iterations =  2.0

     negative rho (up, down):  9.100E-06 0.000E+00

     total cpu time spent up to now is       76.7 secs

     total energy              =     -31.67870517 Ry
     Harris-Foulkes estimate   =     -31.67871218 Ry
     estimated scf accuracy    <       0.00007826 Ry

     iteration #  4     ecut=    80.00 Ry     beta= 0.40
     Davidson diagonalization with overlap
     ethr =  3.73E-07,  avg # of iterations =  1.0

     negative rho (up, down):  9.012E-06 0.000E+00

     total cpu time spent up to now is       77.6 secs

     total energy              =     -31.67868644 Ry
     Harris-Foulkes estimate   =     -31.67870674 Ry
     estimated scf accuracy    <       0.00005176 Ry

     iteration #  5     ecut=    80.00 Ry     beta= 0.40
     Davidson diagonalization with overlap
     ethr =  2.46E-07,  avg # of iterations =  5.0

     negative rho (up, down):  9.011E-06 0.000E+00

     total cpu time spent up to now is       78.7 secs

     total energy              =     -31.67870277 Ry
     Harris-Foulkes estimate   =     -31.67870328 Ry
     estimated scf accuracy    <       0.00001192 Ry

     iteration #  6     ecut=    80.00 Ry     beta= 0.40
     Davidson diagonalization with overlap
     ethr =  5.67E-08,  avg # of iterations =  1.0

     negative rho (up, down):  9.008E-06 0.000E+00

     total cpu time spent up to now is       79.5 secs

     total energy              =     -31.67869988 Ry
     Harris-Foulkes estimate   =     -31.67870299 Ry
     estimated scf accuracy    <       0.00001113 Ry

     iteration #  7     ecut=    80.00 Ry     beta= 0.40
     Davidson diagonalization with overlap
     ethr =  5.30E-08,  avg # of iterations =  1.0

     negative rho (up, down):  8.999E-06 0.000E+00

     total cpu time spent up to now is       80.4 secs

     total energy              =     -31.67869892 Ry
     Harris-Foulkes estimate   =     -31.67870043 Ry
     estimated scf accuracy    <       0.00000363 Ry

     iteration #  8     ecut=    80.00 Ry     beta= 0.40
     Davidson diagonalization with overlap
     ethr =  1.73E-08,  avg # of iterations =  5.0

     negative rho (up, down):  8.999E-06 0.000E+00

     total cpu time spent up to now is       81.5 secs

     total energy              =     -31.67869997 Ry
     Harris-Foulkes estimate   =     -31.67870011 Ry
     estimated scf accuracy    <       0.00000073 Ry

     iteration #  9     ecut=    80.00 Ry     beta= 0.40
     Davidson diagonalization with overlap
     ethr =  3.45E-09,  avg # of iterations =  3.0

     negative rho (up, down):  8.998E-06 0.000E+00

     total cpu time spent up to now is       82.4 secs

     End of self-consistent calculation

          k = 0.0000 0.0000 0.0000 (111965 PWs)   bands (ev):

    -9.6393  -8.0530  -8.0529  -7.5072  -6.5637  -6.5636  -4.2472  -3.7939
    -3.2399  -2.7810  -2.7808  -2.2219  -2.2217  -1.7168  -0.8834

     the Fermi energy is    -2.6358 ev

!    total energy              =     -31.67869970 Ry
     Harris-Foulkes estimate   =     -31.67870005 Ry
     estimated scf accuracy    <       0.00000049 Ry

     The total energy is the sum of the following terms:

     one-electron contribution =    -104.00153182 Ry
     hartree contribution      =      54.09726488 Ry
     xc contribution           =     -13.75540490 Ry
     ewald contribution        =      31.99631833 Ry
     smearing contrib. (-TS)   =      -0.01534618 Ry

     convergence has been achieved in   9 iterations

     negative rho (up, down):  8.998E-06 0.000E+00

     Forces acting on atoms (cartesian axes, Ry/au):

     atom    1 type  1   force =    -0.00733091    0.00424723    0.00000000
     atom    2 type  1   force =    -0.00000000   -0.00089810    0.00000000
     atom    3 type  1   force =     0.00733091    0.00424723    0.00000000
     atom    4 type  1   force =     0.00077591    0.00043348    0.00000000
     atom    5 type  1   force =    -0.00000000   -0.00846434    0.00000000
     atom    6 type  1   force =    -0.00077591    0.00043348    0.00000000
     atom    7 type  1   force =     0.00000000    0.00000103    0.00000000

     Total force =     0.014751     Total SCF correction =     0.000327


     Computing stress (Cartesian axis) and pressure


     negative rho (up, down):  8.998E-06 0.000E+00
          total   stress  (Ry/bohr**3)                   (kbar)     P=   -1.62
  -0.00001662   0.00000000   0.00000000         -2.44      0.00      0.00
   0.00000000  -0.00001664   0.00000000          0.00     -2.45      0.00
   0.00000000   0.00000000   0.00000016          0.00      0.00      0.02


     number of scf cycles    =   4
     number of bfgs steps    =   3

     enthalpy old            =     -31.6777704730 Ry
     enthalpy new            =     -31.6786996984 Ry

     CASE: enthalpy_new < enthalpy_old

     new trust radius        =       0.0363013183 bohr
     new conv_thr            =       0.0000008464 Ry

     new unit-cell volume =   9220.63519 a.u.^3 (  1366.35715 Ang^3 )
     density =      0.25506 g/cm^3

CELL_PARAMETERS (alat= 16.84048341)
   0.996658253   0.000000000   0.000000000
  -0.498329126   0.863130773   0.000000000
   0.000000000   0.000000000   2.244265901

ATOMIC_POSITIONS (angstrom)
Al       2.180545229   1.305176207   0.000000000
Al       4.440929985   2.571243341   0.000000000
Al       6.701348485   1.305194343   0.000000000
Al      -2.226696079   6.406247884   0.000000000
Al       0.000031992   5.081803294   0.000000000
Al       2.226726319   6.406266020   0.000000000
Al       4.440962561   5.127945744   0.000000000



     Writing output data file 1al_planar_2x2_vcr.save/
     NEW-OLD atomic charge density approx. for the potential

     negative rho (up, down):  9.054E-06 0.000E+00
     extrapolated charge   20.93807, renormalised to   21.00000

     total cpu time spent up to now is       96.3 secs

     Self-consistent Calculation

     iteration #  1     ecut=    80.00 Ry     beta= 0.40
     Davidson diagonalization with overlap
     ethr =  1.00E-06,  avg # of iterations =  5.0

     negative rho (up, down):  9.163E-06 0.000E+00

     total cpu time spent up to now is       97.6 secs

     total energy              =     -31.67954561 Ry
     Harris-Foulkes estimate   =     -31.96020170 Ry
     estimated scf accuracy    <       0.00050621 Ry

     iteration #  2     ecut=    80.00 Ry     beta= 0.40
     Davidson diagonalization with overlap
     ethr =  2.41E-06,  avg # of iterations =  5.0

     negative rho (up, down):  9.140E-06 0.000E+00

     total cpu time spent up to now is       98.7 secs

     total energy              =     -31.67993546 Ry
     Harris-Foulkes estimate   =     -31.68022582 Ry
     estimated scf accuracy    <       0.00134798 Ry

     iteration #  3     ecut=    80.00 Ry     beta= 0.40
     Davidson diagonalization with overlap
     ethr =  2.41E-06,  avg # of iterations =  2.0

     negative rho (up, down):  9.126E-06 0.000E+00

     total cpu time spent up to now is       99.6 secs

     total energy              =     -31.68000254 Ry
     Harris-Foulkes estimate   =     -31.68002128 Ry
     estimated scf accuracy    <       0.00020211 Ry

     iteration #  4     ecut=    80.00 Ry     beta= 0.40
     Davidson diagonalization with overlap
     ethr =  9.62E-07,  avg # of iterations =  1.0

     negative rho (up, down):  8.968E-06 0.000E+00

     total cpu time spent up to now is      100.4 secs

     total energy              =     -31.67995688 Ry
     Harris-Foulkes estimate   =     -31.68000642 Ry
     estimated scf accuracy    <       0.00012910 Ry

     iteration #  5     ecut=    80.00 Ry     beta= 0.40
     Davidson diagonalization with overlap
     ethr =  6.15E-07,  avg # of iterations =  5.0

     negative rho (up, down):  8.968E-06 0.000E+00

     total cpu time spent up to now is      101.5 secs

     total energy              =     -31.67999615 Ry
     Harris-Foulkes estimate   =     -31.67999720 Ry
     estimated scf accuracy    <       0.00002649 Ry

     iteration #  6     ecut=    80.00 Ry     beta= 0.40
     Davidson diagonalization with overlap
     ethr =  1.26E-07,  avg # of iterations =  1.0

     negative rho (up, down):  8.967E-06 0.000E+00

     total cpu time spent up to now is      102.4 secs

     total energy              =     -31.67999859 Ry
     Harris-Foulkes estimate   =     -31.67999671 Ry
     estimated scf accuracy    <       0.00002439 Ry

     iteration #  7     ecut=    80.00 Ry     beta= 0.40
     Davidson diagonalization with overlap
     ethr =  1.16E-07,  avg # of iterations =  1.0

     negative rho (up, down):  8.944E-06 0.000E+00

     total cpu time spent up to now is      103.3 secs

     total energy              =     -31.67998422 Ry
     Harris-Foulkes estimate   =     -31.67999879 Ry
     estimated scf accuracy    <       0.00002868 Ry

     iteration #  8     ecut=    80.00 Ry     beta= 0.40
     Davidson diagonalization with overlap
     ethr =  1.16E-07,  avg # of iterations =  2.0

     negative rho (up, down):  8.945E-06 0.000E+00

     total cpu time spent up to now is      104.2 secs

     total energy              =     -31.67999017 Ry
     Harris-Foulkes estimate   =     -31.67999029 Ry
     estimated scf accuracy    <       0.00000172 Ry

     iteration #  9     ecut=    80.00 Ry     beta= 0.40
     Davidson diagonalization with overlap
     ethr =  8.18E-09,  avg # of iterations =  5.0

     negative rho (up, down):  8.953E-06 0.000E+00

     total cpu time spent up to now is      105.2 secs

     total energy              =     -31.67999001 Ry
     Harris-Foulkes estimate   =     -31.67999033 Ry
     estimated scf accuracy    <       0.00000143 Ry

     iteration # 10     ecut=    80.00 Ry     beta= 0.40
     Davidson diagonalization with overlap
     ethr =  6.82E-09,  avg # of iterations =  2.0

     negative rho (up, down):  8.960E-06 0.000E+00

     total cpu time spent up to now is      106.2 secs

     total energy              =     -31.67998996 Ry
     Harris-Foulkes estimate   =     -31.67999030 Ry
     estimated scf accuracy    <       0.00000094 Ry

     iteration # 11     ecut=    80.00 Ry     beta= 0.40
     Davidson diagonalization with overlap
     ethr =  4.46E-09,  avg # of iterations =  1.0

     negative rho (up, down):  8.949E-06 0.000E+00

     total cpu time spent up to now is      107.0 secs

     End of self-consistent calculation

          k = 0.0000 0.0000 0.0000 (111965 PWs)   bands (ev):

    -9.6346  -8.0360  -8.0357  -7.4959  -6.5672  -6.5671  -4.2937  -3.7901
    -3.2218  -2.7586  -2.7585  -2.2083  -2.2081  -1.7083  -0.8864

     the Fermi energy is    -2.6161 ev

!    total energy              =     -31.67999003 Ry
     Harris-Foulkes estimate   =     -31.67999007 Ry
     estimated scf accuracy    <       0.00000006 Ry

     The total energy is the sum of the following terms:

     one-electron contribution =    -104.17944684 Ry
     hartree contribution      =      54.18619246 Ry
     xc contribution           =     -13.75126066 Ry
     ewald contribution        =      32.08068600 Ry
     smearing contrib. (-TS)   =      -0.01616099 Ry

     convergence has been achieved in  11 iterations

     negative rho (up, down):  8.949E-06 0.000E+00

     Forces acting on atoms (cartesian axes, Ry/au):

     atom    1 type  1   force =    -0.00608471    0.00351423    0.00000000
     atom    2 type  1   force =     0.00000000   -0.00303496    0.00000000
     atom    3 type  1   force =     0.00608471    0.00351423    0.00000000
     atom    4 type  1   force =     0.00263085    0.00151321    0.00000000
     atom    5 type  1   force =     0.00000000   -0.00702130    0.00000000
     atom    6 type  1   force =    -0.00263085    0.00151321    0.00000000
     atom    7 type  1   force =    -0.00000000    0.00000140    0.00000000

     Total force =     0.013254     Total SCF correction =     0.000160


     Computing stress (Cartesian axis) and pressure


     negative rho (up, down):  8.949E-06 0.000E+00
          total   stress  (Ry/bohr**3)                   (kbar)     P=   -1.75
  -0.00001780   0.00000000  -0.00000000         -2.62      0.00     -0.00
   0.00000000  -0.00001783   0.00000000          0.00     -2.62      0.00
   0.00000000   0.00000000   0.00000003          0.00      0.00      0.00


     number of scf cycles    =   5
     number of bfgs steps    =   4

     enthalpy old            =     -31.6786996984 Ry
     enthalpy new            =     -31.6799900323 Ry

     CASE: enthalpy_new < enthalpy_old

     new trust radius        =       0.0543718131 bohr
     new conv_thr            =       0.0000007021 Ry

     new unit-cell volume =   9177.71150 a.u.^3 (  1359.99651 Ang^3 )
     density =      0.25625 g/cm^3

CELL_PARAMETERS (alat= 16.84048341)
   0.994336413   0.000000000   0.000000000
  -0.497168207   0.861118829   0.000000000
   0.000000000   0.000000000   2.244265901

ATOMIC_POSITIONS (angstrom)
Al       2.150631582   1.316530947   0.000000000
Al       4.430584287   2.566826279   0.000000000
Al       6.710570657   1.316549040   0.000000000
Al      -2.222857496   6.390478825   0.000000000
Al       0.000031917   5.041268087   0.000000000
Al       2.222887665   6.390496917   0.000000000
Al       4.430616787   5.115983973   0.000000000



     Writing output data file 1al_planar_2x2_vcr.save/
     NEW-OLD atomic charge density approx. for the potential

     negative rho (up, down):  9.123E-06 0.000E+00
     extrapolated charge   20.90186, renormalised to   21.00000

     total cpu time spent up to now is      120.7 secs

     Self-consistent Calculation

     iteration #  1     ecut=    80.00 Ry     beta= 0.40
     Davidson diagonalization with overlap
     ethr =  1.00E-06,  avg # of iterations =  5.0

     negative rho (up, down):  9.235E-06 0.000E+00

     total cpu time spent up to now is      122.1 secs

     total energy              =     -31.68060293 Ry
     Harris-Foulkes estimate   =     -32.12703378 Ry
     estimated scf accuracy    <       0.00133230 Ry

     iteration #  2     ecut=    80.00 Ry     beta= 0.40
     Davidson diagonalization with overlap
     ethr =  6.34E-06,  avg # of iterations =  5.0

     negative rho (up, down):  9.190E-06 0.000E+00

     total cpu time spent up to now is      123.3 secs

     total energy              =     -31.68157764 Ry
     Harris-Foulkes estimate   =     -31.68236917 Ry
     estimated scf accuracy    <       0.00368478 Ry

     iteration #  3     ecut=    80.00 Ry     beta= 0.40
     Davidson diagonalization with overlap
     ethr =  6.34E-06,  avg # of iterations =  2.0

     negative rho (up, down):  9.164E-06 0.000E+00

     total cpu time spent up to now is      124.2 secs

     total energy              =     -31.68176260 Ry
     Harris-Foulkes estimate   =     -31.68180980 Ry
     estimated scf accuracy    <       0.00051034 Ry

     iteration #  4     ecut=    80.00 Ry     beta= 0.40
     Davidson diagonalization with overlap
     ethr =  2.43E-06,  avg # of iterations =  1.0

     negative rho (up, down):  8.940E-06 0.000E+00

     total cpu time spent up to now is      125.0 secs

     total energy              =     -31.68166030 Ry
     Harris-Foulkes estimate   =     -31.68177306 Ry
     estimated scf accuracy    <       0.00031739 Ry

     iteration #  5     ecut=    80.00 Ry     beta= 0.40
     Davidson diagonalization with overlap
     ethr =  1.51E-06,  avg # of iterations =  5.0

     negative rho (up, down):  8.937E-06 0.000E+00

     total cpu time spent up to now is      126.1 secs

     total energy              =     -31.68174244 Ry
     Harris-Foulkes estimate   =     -31.68174584 Ry
     estimated scf accuracy    <       0.00003871 Ry

     iteration #  6     ecut=    80.00 Ry     beta= 0.40
     Davidson diagonalization with overlap
     ethr =  1.84E-07,  avg # of iterations =  3.0

     negative rho (up, down):  8.921E-06 0.000E+00

     total cpu time spent up to now is      127.0 secs

     total energy              =     -31.68173892 Ry
     Harris-Foulkes estimate   =     -31.68174532 Ry
     estimated scf accuracy    <       0.00003174 Ry

     iteration #  7     ecut=    80.00 Ry     beta= 0.40
     Davidson diagonalization with overlap
     ethr =  1.51E-07,  avg # of iterations =  1.0

     negative rho (up, down):  8.863E-06 0.000E+00

     total cpu time spent up to now is      127.9 secs

     total energy              =     -31.68173522 Ry
     Harris-Foulkes estimate   =     -31.68173990 Ry
     estimated scf accuracy    <       0.00001544 Ry

     iteration #  8     ecut=    80.00 Ry     beta= 0.40
     Davidson diagonalization with overlap
     ethr =  7.35E-08,  avg # of iterations =  3.0

     negative rho (up, down):  8.868E-06 0.000E+00

     total cpu time spent up to now is      128.9 secs

     total energy              =     -31.68173766 Ry
     Harris-Foulkes estimate   =     -31.68173814 Ry
     estimated scf accuracy    <       0.00000200 Ry

     iteration #  9     ecut=    80.00 Ry     beta= 0.40
     Davidson diagonalization with overlap
     ethr =  9.51E-09,  avg # of iterations =  5.0

     negative rho (up, down):  8.881E-06 0.000E+00

     total cpu time spent up to now is      129.9 secs

     total energy              =     -31.68173785 Ry
     Harris-Foulkes estimate   =     -31.68173795 Ry
     estimated scf accuracy    <       0.00000073 Ry

     iteration # 10     ecut=    80.00 Ry     beta= 0.40
     Davidson diagonalization with overlap
     ethr =  3.46E-09,  avg # of iterations =  2.0

     negative rho (up, down):  8.872E-06 0.000E+00

     total cpu time spent up to now is      130.7 secs

     End of self-consistent calculation

          k = 0.0000 0.0000 0.0000 (111965 PWs)   bands (ev):

    -9.6326  -8.0144  -8.0140  -7.4836  -6.5752  -6.5749  -4.3675  -3.7875
    -3.1969  -2.7284  -2.7282  -2.1902  -2.1899  -1.6991  -0.8918

     the Fermi energy is    -2.5896 ev

!    total energy              =     -31.68173747 Ry
     Harris-Foulkes estimate   =     -31.68173794 Ry
     estimated scf accuracy    <       0.00000058 Ry

     The total energy is the sum of the following terms:

     one-electron contribution =    -104.48059670 Ry
     hartree contribution      =      54.33898978 Ry
     xc contribution           =     -13.74642287 Ry
     ewald contribution        =      32.22354057 Ry
     smearing contrib. (-TS)   =      -0.01724825 Ry

     convergence has been achieved in  10 iterations

     negative rho (up, down):  8.872E-06 0.000E+00

     Forces acting on atoms (cartesian axes, Ry/au):

     atom    1 type  1   force =    -0.00440409    0.00253519    0.00000000
     atom    2 type  1   force =     0.00000000   -0.00570751    0.00000000
     atom    3 type  1   force =     0.00440409    0.00253519    0.00000000
     atom    4 type  1   force =     0.00495131    0.00285538    0.00000000
     atom    5 type  1   force =     0.00000000   -0.00508134    0.00000000
     atom    6 type  1   force =    -0.00495131    0.00285538    0.00000000
     atom    7 type  1   force =    -0.00000000    0.00000771    0.00000000

     Total force =     0.013243     Total SCF correction =     0.000347


     Computing stress (Cartesian axis) and pressure


     negative rho (up, down):  8.872E-06 0.000E+00
          total   stress  (Ry/bohr**3)                   (kbar)     P=   -1.90
  -0.00001943   0.00000000   0.00000000         -2.86      0.00      0.00
   0.00000000  -0.00001949   0.00000000          0.00     -2.87      0.00
   0.00000000   0.00000000   0.00000016          0.00      0.00      0.02


     number of scf cycles    =   6
     number of bfgs steps    =   5

     enthalpy old            =     -31.6799900323 Ry
     enthalpy new            =     -31.6817374669 Ry

     CASE: enthalpy_new < enthalpy_old

     new trust radius        =       0.0813676930 bohr
     new conv_thr            =       0.0000005708 Ry

     new unit-cell volume =   9110.30286 a.u.^3 (  1350.00758 Ang^3 )
     density =      0.25815 g/cm^3

CELL_PARAMETERS (alat= 16.84048341)
   0.990679660   0.000000000   0.000000000
  -0.495339830   0.857949244   0.000000000
   0.000000000   0.000000000   2.244265901

ATOMIC_POSITIONS (angstrom)
Al       2.105607353   1.333198804   0.000000000
Al       4.414290453   2.557884568   0.000000000
Al       6.723007094   1.333216830   0.000000000
Al      -2.215089570   6.366633650   0.000000000
Al       0.000031800   4.979834010   0.000000000
Al       2.215119629   6.366651676   0.000000000
Al       4.414322833   5.097144371   0.000000000



     Writing output data file 1al_planar_2x2_vcr.save/
     NEW-OLD atomic charge density approx. for the potential

     negative rho (up, down):  9.699E-06 0.000E+00
     extrapolated charge   20.84474, renormalised to   21.00000

     total cpu time spent up to now is      144.4 secs

     Self-consistent Calculation

     iteration #  1     ecut=    80.00 Ry     beta= 0.40
     Davidson diagonalization with overlap
     ethr =  1.00E-06,  avg # of iterations =  7.0

     negative rho (up, down):  9.542E-06 0.000E+00

     total cpu time spent up to now is      145.9 secs

     total energy              =     -31.68143929 Ry
     Harris-Foulkes estimate   =     -32.39167702 Ry
     estimated scf accuracy    <       0.00284325 Ry

     iteration #  2     ecut=    80.00 Ry     beta= 0.40
     Davidson diagonalization with overlap
     ethr =  1.35E-05,  avg # of iterations =  5.0

     negative rho (up, down):  9.415E-06 0.000E+00

     total cpu time spent up to now is      147.0 secs

     total energy              =     -31.68366297 Ry
     Harris-Foulkes estimate   =     -31.68547528 Ry
     estimated scf accuracy    <       0.00874207 Ry

     iteration #  3     ecut=    80.00 Ry     beta= 0.40
     Davidson diagonalization with overlap
     ethr =  1.35E-05,  avg # of iterations =  2.0

     negative rho (up, down):  9.319E-06 0.000E+00

     total cpu time spent up to now is      147.9 secs

     total energy              =     -31.68407672 Ry
     Harris-Foulkes estimate   =     -31.68420205 Ry
     estimated scf accuracy    <       0.00126099 Ry

     iteration #  4     ecut=    80.00 Ry     beta= 0.40
     Davidson diagonalization with overlap
     ethr =  6.00E-06,  avg # of iterations =  1.0

     negative rho (up, down):  8.864E-06 0.000E+00

     total cpu time spent up to now is      148.7 secs

     total energy              =     -31.68384520 Ry
     Harris-Foulkes estimate   =     -31.68410037 Ry
     estimated scf accuracy    <       0.00074072 Ry

     iteration #  5     ecut=    80.00 Ry     beta= 0.40
     Davidson diagonalization with overlap
     ethr =  3.53E-06,  avg # of iterations =  5.0

     negative rho (up, down):  8.856E-06 0.000E+00

     total cpu time spent up to now is      149.8 secs

     total energy              =     -31.68402362 Ry
     Harris-Foulkes estimate   =     -31.68403082 Ry
     estimated scf accuracy    <       0.00008973 Ry

     iteration #  6     ecut=    80.00 Ry     beta= 0.40
     Davidson diagonalization with overlap
     ethr =  4.27E-07,  avg # of iterations =  3.0

     negative rho (up, down):  8.844E-06 0.000E+00

     total cpu time spent up to now is      150.7 secs

     total energy              =     -31.68402095 Ry
     Harris-Foulkes estimate   =     -31.68403063 Ry
     estimated scf accuracy    <       0.00007589 Ry

     iteration #  7     ecut=    80.00 Ry     beta= 0.40
     Davidson diagonalization with overlap
     ethr =  3.61E-07,  avg # of iterations =  1.0

     negative rho (up, down):  8.747E-06 0.000E+00

     total cpu time spent up to now is      151.6 secs

     total energy              =     -31.68400211 Ry
     Harris-Foulkes estimate   =     -31.68402200 Ry
     estimated scf accuracy    <       0.00005277 Ry

     iteration #  8     ecut=    80.00 Ry     beta= 0.40
     Davidson diagonalization with overlap
     ethr =  2.51E-07,  avg # of iterations =  3.0

     negative rho (up, down):  8.748E-06 0.000E+00

     total cpu time spent up to now is      152.6 secs

     total energy              =     -31.68401153 Ry
     Harris-Foulkes estimate   =     -31.68401269 Ry
     estimated scf accuracy    <       0.00000517 Ry

     iteration #  9     ecut=    80.00 Ry     beta= 0.40
     Davidson diagonalization with overlap
     ethr =  2.46E-08,  avg # of iterations =  5.0

     negative rho (up, down):  8.759E-06 0.000E+00

     total cpu time spent up to now is      153.6 secs

     total energy              =     -31.68401167 Ry
     Harris-Foulkes estimate   =     -31.68401239 Ry
     estimated scf accuracy    <       0.00000229 Ry

     iteration # 10     ecut=    80.00 Ry     beta= 0.40
     Davidson diagonalization with overlap
     ethr =  1.09E-08,  avg # of iterations =  2.0

     negative rho (up, down):  8.753E-06 0.000E+00

     total cpu time spent up to now is      154.5 secs

     total energy              =     -31.68401179 Ry
     Harris-Foulkes estimate   =     -31.68401184 Ry
     estimated scf accuracy    <       0.00000061 Ry

     iteration # 11     ecut=    80.00 Ry     beta= 0.40
     Davidson diagonalization with overlap
     ethr =  2.91E-09,  avg # of iterations =  5.0

     negative rho (up, down):  8.749E-06 0.000E+00

     total cpu time spent up to now is      155.7 secs

     total energy              =     -31.68401165 Ry
     Harris-Foulkes estimate   =     -31.68401213 Ry
     estimated scf accuracy    <       0.00000125 Ry

     iteration # 12     ecut=    80.00 Ry     beta= 0.40
     Davidson diagonalization with overlap
     ethr =  2.91E-09,  avg # of iterations =  2.0

     negative rho (up, down):  8.740E-06 0.000E+00

     total cpu time spent up to now is      156.6 secs

     End of self-consistent calculation

          k = 0.0000 0.0000 0.0000 (111965 PWs)   bands (ev):

    -9.6295  -7.9808  -7.9800  -7.4645  -6.5844  -6.5839  -4.4810  -3.7837
    -3.1552  -2.6796  -2.6794  -2.1618  -2.1613  -1.6856  -0.8972

     the Fermi energy is    -2.5474 ev

!    total energy              =     -31.68401173 Ry
     Harris-Foulkes estimate   =     -31.68401178 Ry
     estimated scf accuracy    <       0.00000007 Ry

     The total energy is the sum of the following terms:

     one-electron contribution =    -104.97998480 Ry
     hartree contribution      =      54.58916276 Ry
     xc contribution           =     -13.73934111 Ry
     ewald contribution        =      32.46511252 Ry
     smearing contrib. (-TS)   =      -0.01896111 Ry

     convergence has been achieved in  12 iterations

     negative rho (up, down):  8.740E-06 0.000E+00

     Forces acting on atoms (cartesian axes, Ry/au):

     atom    1 type  1   force =    -0.00203464    0.00115388    0.00000000
     atom    2 type  1   force =     0.00000000   -0.00927442    0.00000000
     atom    3 type  1   force =     0.00203464    0.00115388    0.00000000
     atom    4 type  1   force =     0.00803447    0.00465092    0.00000000
     atom    5 type  1   force =     0.00000000   -0.00234648    0.00000000
     atom    6 type  1   force =    -0.00803447    0.00465092    0.00000000
     atom    7 type  1   force =    -0.00000000    0.00001131    0.00000000

     Total force =     0.016578     Total SCF correction =     0.000162


     Computing stress (Cartesian axis) and pressure


     negative rho (up, down):  8.740E-06 0.000E+00
          total   stress  (Ry/bohr**3)                   (kbar)     P=   -2.14
  -0.00002178   0.00000000  -0.00000000         -3.20      0.00     -0.00
   0.00000000  -0.00002187   0.00000000          0.00     -3.22      0.00
  -0.00000000   0.00000000   0.00000003         -0.00      0.00      0.00


     number of scf cycles    =   7
     number of bfgs steps    =   6

     enthalpy old            =     -31.6817374669 Ry
     enthalpy new            =     -31.6840117331 Ry

     CASE: enthalpy_new < enthalpy_old

     new trust radius        =       0.1216025869 bohr
     new conv_thr            =       0.0000009274 Ry

     new unit-cell volume =   9004.41022 a.u.^3 (  1334.31591 Ang^3 )
     density =      0.26119 g/cm^3

CELL_PARAMETERS (alat= 16.84048341)
   0.984908453   0.000000000   0.000000000
  -0.492454226   0.852945801   0.000000000
   0.000000000   0.000000000   2.244265901

ATOMIC_POSITIONS (angstrom)
Al       2.037990104   1.357501503   0.000000000
Al       4.388574989   2.540896860   0.000000000
Al       6.739193220   1.357519424   0.000000000
Al      -2.200347000   6.330440818   0.000000000
Al       0.000031615   4.886845561   0.000000000
Al       2.200376884   6.330458739   0.000000000
Al       4.388607181   5.067407231   0.000000000



     Writing output data file 1al_planar_2x2_vcr.save/
     NEW-OLD atomic charge density approx. for the potential

     negative rho (up, down):  1.213E-05 0.000E+00
     extrapolated charge   20.75324, renormalised to   21.00000

     total cpu time spent up to now is      170.3 secs

     Self-consistent Calculation

     iteration #  1     ecut=    80.00 Ry     beta= 0.40
     Davidson diagonalization with overlap
     ethr =  1.00E-06,  avg # of iterations =  8.0

     negative rho (up, down):  1.072E-05 0.000E+00

     total cpu time spent up to now is      172.0 secs

     total energy              =     -31.68043725 Ry
     Harris-Foulkes estimate   =     -32.82019175 Ry
     estimated scf accuracy    <       0.00703670 Ry

     iteration #  2     ecut=    80.00 Ry     beta= 0.40
     Davidson diagonalization with overlap
     ethr =  3.35E-05,  avg # of iterations =  5.0

     negative rho (up, down):  1.028E-05 0.000E+00

     total cpu time spent up to now is      173.1 secs

     total energy              =     -31.68584963 Ry
     Harris-Foulkes estimate   =     -31.69058643 Ry
     estimated scf accuracy    <       0.02326335 Ry

     iteration #  3     ecut=    80.00 Ry     beta= 0.40
     Davidson diagonalization with overlap
     ethr =  3.35E-05,  avg # of iterations =  2.0

     negative rho (up, down):  9.959E-06 0.000E+00

     total cpu time spent up to now is      174.0 secs

     total energy              =     -31.68689165 Ry
     Harris-Foulkes estimate   =     -31.68722911 Ry
     estimated scf accuracy    <       0.00328927 Ry

     iteration #  4     ecut=    80.00 Ry     beta= 0.40
     Davidson diagonalization with overlap
     ethr =  1.57E-05,  avg # of iterations =  1.0

     negative rho (up, down):  8.816E-06 0.000E+00

     total cpu time spent up to now is      174.8 secs

     total energy              =     -31.68637169 Ry
     Harris-Foulkes estimate   =     -31.68696412 Ry
     estimated scf accuracy    <       0.00184213 Ry

     iteration #  5     ecut=    80.00 Ry     beta= 0.40
     Davidson diagonalization with overlap
     ethr =  8.77E-06,  avg # of iterations =  4.0

     negative rho (up, down):  8.801E-06 0.000E+00

     total cpu time spent up to now is      175.8 secs

     total energy              =     -31.68680561 Ry
     Harris-Foulkes estimate   =     -31.68681300 Ry
     estimated scf accuracy    <       0.00014605 Ry

     iteration #  6     ecut=    80.00 Ry     beta= 0.40
     Davidson diagonalization with overlap
     ethr =  6.95E-07,  avg # of iterations =  3.0

     negative rho (up, down):  8.806E-06 0.000E+00

     total cpu time spent up to now is      176.8 secs

     total energy              =     -31.68681939 Ry
     Harris-Foulkes estimate   =     -31.68683530 Ry
     estimated scf accuracy    <       0.00016578 Ry

     iteration #  7     ecut=    80.00 Ry     beta= 0.40
     Davidson diagonalization with overlap
     ethr =  6.95E-07,  avg # of iterations =  1.0

     negative rho (up, down):  8.535E-06 0.000E+00

     total cpu time spent up to now is      177.6 secs

     total energy              =     -31.68674780 Ry
     Harris-Foulkes estimate   =     -31.68682175 Ry
     estimated scf accuracy    <       0.00012294 Ry

     iteration #  8     ecut=    80.00 Ry     beta= 0.40
     Davidson diagonalization with overlap
     ethr =  5.85E-07,  avg # of iterations =  5.0

     negative rho (up, down):  8.498E-06 0.000E+00

     total cpu time spent up to now is      178.8 secs

     total energy              =     -31.68680815 Ry
     Harris-Foulkes estimate   =     -31.68682290 Ry
     estimated scf accuracy    <       0.00014948 Ry

     iteration #  9     ecut=    80.00 Ry     beta= 0.40
     Davidson diagonalization with overlap
     ethr =  5.85E-07,  avg # of iterations =  1.0

     negative rho (up, down):  8.546E-06 0.000E+00

     total cpu time spent up to now is      179.6 secs

     total energy              =     -31.68678449 Ry
     Harris-Foulkes estimate   =     -31.68681082 Ry
     estimated scf accuracy    <       0.00008516 Ry

     iteration # 10     ecut=    80.00 Ry     beta= 0.40
     Davidson diagonalization with overlap
     ethr =  4.06E-07,  avg # of iterations =  4.0

     negative rho (up, down):  8.574E-06 0.000E+00

     total cpu time spent up to now is      180.6 secs

     total energy              =     -31.68679669 Ry
     Harris-Foulkes estimate   =     -31.68679635 Ry
     estimated scf accuracy    <       0.00000483 Ry

     iteration # 11     ecut=    80.00 Ry     beta= 0.40
     Davidson diagonalization with overlap
     ethr =  2.30E-08,  avg # of iterations =  5.0

     negative rho (up, down):  8.551E-06 0.000E+00

     total cpu time spent up to now is      181.8 secs

     total energy              =     -31.68679369 Ry
     Harris-Foulkes estimate   =     -31.68680118 Ry
     estimated scf accuracy    <       0.00001492 Ry

     iteration # 12     ecut=    80.00 Ry     beta= 0.40
     Davidson diagonalization with overlap
     ethr =  2.30E-08,  avg # of iterations =  5.0

     negative rho (up, down):  8.532E-06 0.000E+00

     total cpu time spent up to now is      183.0 secs

     total energy              =     -31.68679816 Ry
     Harris-Foulkes estimate   =     -31.68679769 Ry
     estimated scf accuracy    <       0.00000226 Ry

     iteration # 13     ecut=    80.00 Ry     beta= 0.40
     Davidson diagonalization with overlap
     ethr =  1.08E-08,  avg # of iterations =  1.0

     negative rho (up, down):  8.542E-06 0.000E+00

     total cpu time spent up to now is      183.8 secs

     total energy              =     -31.68679731 Ry
     Harris-Foulkes estimate   =     -31.68679828 Ry
     estimated scf accuracy    <       0.00000287 Ry

     iteration # 14     ecut=    80.00 Ry     beta= 0.40
     Davidson diagonalization with overlap
     ethr =  1.08E-08,  avg # of iterations =  1.0

     negative rho (up, down):  8.545E-06 0.000E+00

     total cpu time spent up to now is      184.6 secs

     End of self-consistent calculation

          k = 0.0000 0.0000 0.0000 (111965 PWs)   bands (ev):

    -9.6314  -7.9329  -7.9318  -7.4433  -6.5985  -6.5977  -4.6590  -3.7827
    -3.0883  -2.6090  -2.6087  -2.1198  -2.1191  -1.6722  -0.9036

     the Fermi energy is    -2.4862 ev

!    total energy              =     -31.68679724 Ry
     Harris-Foulkes estimate   =     -31.68679753 Ry
     estimated scf accuracy    <       0.00000038 Ry

     The total energy is the sum of the following terms:

     one-electron contribution =    -105.82714236 Ry
     hartree contribution      =      55.01429440 Ry
     xc contribution           =     -13.73099145 Ry
     ewald contribution        =      32.87851311 Ry
     smearing contrib. (-TS)   =      -0.02147094 Ry

     convergence has been achieved in  14 iterations

     negative rho (up, down):  8.545E-06 0.000E+00

     Forces acting on atoms (cartesian axes, Ry/au):

     atom    1 type  1   force =     0.00122880   -0.00072462    0.00000000
     atom    2 type  1   force =     0.00000000   -0.01376647    0.00000000
     atom    3 type  1   force =    -0.00122880   -0.00072462    0.00000000
     atom    4 type  1   force =     0.01191870    0.00689145    0.00000000
     atom    5 type  1   force =    -0.00000000    0.00141189    0.00000000
     atom    6 type  1   force =    -0.01191870    0.00689145    0.00000000
     atom    7 type  1   force =    -0.00000000    0.00002091    0.00000000

     Total force =     0.023972     Total SCF correction =     0.000362


     Computing stress (Cartesian axis) and pressure


     negative rho (up, down):  8.545E-06 0.000E+00
          total   stress  (Ry/bohr**3)                   (kbar)     P=   -2.47
  -0.00002512   0.00000000   0.00000000         -3.70      0.00      0.00
   0.00000000  -0.00002526   0.00000000          0.00     -3.72      0.00
   0.00000000   0.00000000  -0.00000005          0.00      0.00     -0.01


     number of scf cycles    =   8
     number of bfgs steps    =   7

     enthalpy old            =     -31.6840117331 Ry
     enthalpy new            =     -31.6867972402 Ry

     CASE: enthalpy_new < enthalpy_old

     new trust radius        =       0.1813409943 bohr
     new conv_thr            =       0.0000010000 Ry

     new unit-cell volume =   8837.44173 a.u.^3 (  1309.57374 Ang^3 )
     density =      0.26612 g/cm^3

CELL_PARAMETERS (alat= 16.84048341)
   0.975740349   0.000000000   0.000000000
  -0.487870175   0.844995365   0.000000000
   0.000000000   0.000000000   2.244265901

ATOMIC_POSITIONS (angstrom)
Al       1.936771038   1.392525473   0.000000000
Al       4.347723568   2.509566916   0.000000000
Al       6.758709134   1.392543227   0.000000000
Al      -2.173176496   6.275098830   0.000000000
Al       0.000031320   4.746264376   0.000000000
Al       2.173206101   6.275116585   0.000000000
Al       4.347755460   5.020164309   0.000000000



     Writing output data file 1al_planar_2x2_vcr.save/
     NEW-OLD atomic charge density approx. for the potential

     negative rho (up, down):  1.658E-05 0.000E+00
     extrapolated charge   20.60356, renormalised to   21.00000

     total cpu time spent up to now is      198.2 secs

     Self-consistent Calculation

     iteration #  1     ecut=    80.00 Ry     beta= 0.40
     Davidson diagonalization with overlap
     ethr =  1.00E-06,  avg # of iterations =  9.0

     negative rho (up, down):  1.292E-05 0.000E+00

     total cpu time spent up to now is      200.1 secs

     total energy              =     -31.67440649 Ry
     Harris-Foulkes estimate   =     -33.53470604 Ry
     estimated scf accuracy    <       0.01685668 Ry

     iteration #  2     ecut=    80.00 Ry     beta= 0.40
     Davidson diagonalization with overlap
     ethr =  8.03E-05,  avg # of iterations =  5.0

     negative rho (up, down):  1.191E-05 0.000E+00

     total cpu time spent up to now is      201.2 secs

     total energy              =     -31.68745730 Ry
     Harris-Foulkes estimate   =     -31.69928857 Ry
     estimated scf accuracy    <       0.05921984 Ry

     iteration #  3     ecut=    80.00 Ry     beta= 0.40
     Davidson diagonalization with overlap
     ethr =  8.03E-05,  avg # of iterations =  2.0

     negative rho (up, down):  1.110E-05 0.000E+00

     total cpu time spent up to now is      202.1 secs

     total energy              =     -31.69006044 Ry
     Harris-Foulkes estimate   =     -31.69092572 Ry
     estimated scf accuracy    <       0.00828219 Ry

     iteration #  4     ecut=    80.00 Ry     beta= 0.40
     Davidson diagonalization with overlap
     ethr =  3.94E-05,  avg # of iterations =  1.0

     negative rho (up, down):  8.771E-06 0.000E+00

     total cpu time spent up to now is      203.0 secs

     total energy              =     -31.68888607 Ry
     Harris-Foulkes estimate   =     -31.69025244 Ry
     estimated scf accuracy    <       0.00454122 Ry

     iteration #  5     ecut=    80.00 Ry     beta= 0.40
     Davidson diagonalization with overlap
     ethr =  2.16E-05,  avg # of iterations =  4.0

     negative rho (up, down):  8.738E-06 0.000E+00

     total cpu time spent up to now is      204.0 secs

     total energy              =     -31.68990699 Ry
     Harris-Foulkes estimate   =     -31.68992828 Ry
     estimated scf accuracy    <       0.00032907 Ry

     iteration #  6     ecut=    80.00 Ry     beta= 0.40
     Davidson diagonalization with overlap
     ethr =  1.57E-06,  avg # of iterations =  3.0

     negative rho (up, down):  8.692E-06 0.000E+00

     total cpu time spent up to now is      205.0 secs

     total energy              =     -31.68993883 Ry
     Harris-Foulkes estimate   =     -31.68998181 Ry
     estimated scf accuracy    <       0.00036215 Ry

     iteration #  7     ecut=    80.00 Ry     beta= 0.40
     Davidson diagonalization with overlap
     ethr =  1.57E-06,  avg # of iterations =  1.0

     negative rho (up, down):  7.712E-06 0.000E+00

     total cpu time spent up to now is      205.8 secs

     total energy              =     -31.68979326 Ry
     Harris-Foulkes estimate   =     -31.68994673 Ry
     estimated scf accuracy    <       0.00024874 Ry

     iteration #  8     ecut=    80.00 Ry     beta= 0.40
     Davidson diagonalization with overlap
     ethr =  1.18E-06,  avg # of iterations =  5.0

     negative rho (up, down):  7.862E-06 0.000E+00

     total cpu time spent up to now is      207.0 secs

     total energy              =     -31.68988845 Ry
     Harris-Foulkes estimate   =     -31.69001546 Ry
     estimated scf accuracy    <       0.00055246 Ry

     iteration #  9     ecut=    80.00 Ry     beta= 0.40
     Davidson diagonalization with overlap
     ethr =  1.18E-06,  avg # of iterations =  2.0

     negative rho (up, down):  8.036E-06 0.000E+00

     total cpu time spent up to now is      207.9 secs

     total energy              =     -31.68988087 Ry
     Harris-Foulkes estimate   =     -31.68991870 Ry
     estimated scf accuracy    <       0.00011010 Ry

     iteration # 10     ecut=    80.00 Ry     beta= 0.40
     Davidson diagonalization with overlap
     ethr =  5.24E-07,  avg # of iterations =  4.0

     negative rho (up, down):  8.135E-06 0.000E+00

     total cpu time spent up to now is      209.0 secs

     total energy              =     -31.68990783 Ry
     Harris-Foulkes estimate   =     -31.68990835 Ry
     estimated scf accuracy    <       0.00001537 Ry

     iteration # 11     ecut=    80.00 Ry     beta= 0.40
     Davidson diagonalization with overlap
     ethr =  7.32E-08,  avg # of iterations =  2.0

     negative rho (up, down):  8.117E-06 0.000E+00

     total cpu time spent up to now is      209.8 secs

     total energy              =     -31.68990506 Ry
     Harris-Foulkes estimate   =     -31.68990885 Ry
     estimated scf accuracy    <       0.00000987 Ry

     iteration # 12     ecut=    80.00 Ry     beta= 0.40
     Davidson diagonalization with overlap
     ethr =  4.70E-08,  avg # of iterations =  3.0

     negative rho (up, down):  8.171E-06 0.000E+00

     total cpu time spent up to now is      210.7 secs

     End of self-consistent calculation

          k = 0.0000 0.0000 0.0000 (111965 PWs)   bands (ev):

    -9.6436  -7.8611  -7.8595  -7.4274  -6.6162  -6.6149  -4.9342  -3.7883
    -2.9724  -2.5060  -2.5058  -2.0548  -2.0537  -1.6653  -0.9070

     the Fermi energy is    -2.3959 ev

!    total energy              =     -31.68990624 Ry
     Harris-Foulkes estimate   =     -31.68990646 Ry
     estimated scf accuracy    <       0.00000088 Ry

     The total energy is the sum of the following terms:

     one-electron contribution =    -107.29990948 Ry
     hartree contribution      =      55.75575278 Ry
     xc contribution           =     -13.72354055 Ry
     ewald contribution        =      33.60329638 Ry
     smearing contrib. (-TS)   =      -0.02550539 Ry

     convergence has been achieved in  12 iterations

     negative rho (up, down):  8.171E-06 0.000E+00

     Forces acting on atoms (cartesian axes, Ry/au):

     atom    1 type  1   force =     0.00581637   -0.00334142    0.00000000
     atom    2 type  1   force =     0.00000000   -0.01916049    0.00000000
     atom    3 type  1   force =    -0.00581637   -0.00334142    0.00000000
     atom    4 type  1   force =     0.01660899    0.00955040    0.00000000
     atom    5 type  1   force =    -0.00000000    0.00670724    0.00000000
     atom    6 type  1   force =    -0.01660899    0.00955040    0.00000000
     atom    7 type  1   force =    -0.00000000    0.00003529    0.00000000

     Total force =     0.035160     Total SCF correction =     0.000514


     Computing stress (Cartesian axis) and pressure


     negative rho (up, down):  8.171E-06 0.000E+00
          total   stress  (Ry/bohr**3)                   (kbar)     P=   -2.93
  -0.00002980   0.00000000   0.00000000         -4.38      0.00      0.00
   0.00000000  -0.00003001   0.00000000          0.00     -4.41      0.00
  -0.00000000   0.00000000  -0.00000003         -0.00      0.00     -0.00


     number of scf cycles    =   9
     number of bfgs steps    =   8

     enthalpy old            =     -31.6867972402 Ry
     enthalpy new            =     -31.6899062442 Ry

     CASE: enthalpy_new < enthalpy_old

     new trust radius        =       0.2590580061 bohr
     new conv_thr            =       0.0000010000 Ry

     new unit-cell volume =   8595.78918 a.u.^3 (  1273.76452 Ang^3 )
     density =      0.27360 g/cm^3

CELL_PARAMETERS (alat= 16.84048341)
   0.962318900   0.000000000   0.000000000
  -0.481159450   0.833352548   0.000000000
   0.000000000   0.000000000   2.244265901

ATOMIC_POSITIONS (angstrom)
Al       1.800727382   1.436805295   0.000000000
Al       4.287920005   2.456436225   0.000000000
Al       6.775145210   1.436822805   0.000000000
Al      -2.127099957   6.197648728   0.000000000
Al       0.000030889   4.554457813   0.000000000
Al       2.127129155   6.197666238   0.000000000
Al       4.287951459   4.950999012   0.000000000



     Writing output data file 1al_planar_2x2_vcr.save/
     NEW-OLD atomic charge density approx. for the potential

     negative rho (up, down):  2.017E-05 0.000E+00
     extrapolated charge   20.41011, renormalised to   21.00000

     total cpu time spent up to now is      224.3 secs

     Self-consistent Calculation

     iteration #  1     ecut=    80.00 Ry     beta= 0.40
     Davidson diagonalization with overlap
     ethr =  1.00E-06,  avg # of iterations = 11.0

     negative rho (up, down):  1.470E-05 0.000E+00

     total cpu time spent up to now is      226.3 secs

     total energy              =     -31.66277003 Ry
     Harris-Foulkes estimate   =     -34.49707692 Ry
     estimated scf accuracy    <       0.03133279 Ry

     iteration #  2     ecut=    80.00 Ry     beta= 0.40
     Davidson diagonalization with overlap
     ethr =  1.49E-04,  avg # of iterations =  4.0

     negative rho (up, down):  1.330E-05 0.000E+00

     total cpu time spent up to now is      227.5 secs

     total energy              =     -31.68912715 Ry
     Harris-Foulkes estimate   =     -31.71053311 Ry
     estimated scf accuracy    <       0.10744928 Ry

     iteration #  3     ecut=    80.00 Ry     beta= 0.40
     Davidson diagonalization with overlap
     ethr =  1.49E-04,  avg # of iterations =  2.0

     negative rho (up, down):  1.196E-05 0.000E+00

     total cpu time spent up to now is      228.4 secs

     total energy              =     -31.69357795 Ry
     Harris-Foulkes estimate   =     -31.69528360 Ry
     estimated scf accuracy    <       0.01652453 Ry

     iteration #  4     ecut=    80.00 Ry     beta= 0.40
     Davidson diagonalization with overlap
     ethr =  7.87E-05,  avg # of iterations =  1.0

     negative rho (up, down):  8.785E-06 0.000E+00

     total cpu time spent up to now is      229.3 secs

     total energy              =     -31.69156521 Ry
     Harris-Foulkes estimate   =     -31.69395770 Ry
     estimated scf accuracy    <       0.00928676 Ry

     iteration #  5     ecut=    80.00 Ry     beta= 0.40
     Davidson diagonalization with overlap
     ethr =  4.42E-05,  avg # of iterations =  4.0

     negative rho (up, down):  8.534E-06 0.000E+00

     total cpu time spent up to now is      230.2 secs

     total energy              =     -31.69309182 Ry
     Harris-Foulkes estimate   =     -31.69318214 Ry
     estimated scf accuracy    <       0.00059281 Ry

     iteration #  6     ecut=    80.00 Ry     beta= 0.40
     Davidson diagonalization with overlap
     ethr =  2.82E-06,  avg # of iterations =  5.0

     negative rho (up, down):  7.967E-06 0.000E+00

     total cpu time spent up to now is      231.3 secs

     total energy              =     -31.69314678 Ry
     Harris-Foulkes estimate   =     -31.69322587 Ry
     estimated scf accuracy    <       0.00030775 Ry

     iteration #  7     ecut=    80.00 Ry     beta= 0.40
     Davidson diagonalization with overlap
     ethr =  1.47E-06,  avg # of iterations =  5.0

     negative rho (up, down):  7.457E-06 0.000E+00

     total cpu time spent up to now is      232.3 secs

     total energy              =     -31.69302575 Ry
     Harris-Foulkes estimate   =     -31.69329311 Ry
     estimated scf accuracy    <       0.00067364 Ry

     iteration #  8     ecut=    80.00 Ry     beta= 0.40
     Davidson diagonalization with overlap
     ethr =  1.47E-06,  avg # of iterations =  5.0

     negative rho (up, down):  7.448E-06 0.000E+00

     total cpu time spent up to now is      233.5 secs

     total energy              =     -31.69320326 Ry
     Harris-Foulkes estimate   =     -31.69321887 Ry
     estimated scf accuracy    <       0.00016325 Ry

     iteration #  9     ecut=    80.00 Ry     beta= 0.40
     Davidson diagonalization with overlap
     ethr =  7.77E-07,  avg # of iterations =  1.0

     negative rho (up, down):  7.516E-06 0.000E+00

     total cpu time spent up to now is      234.3 secs

     total energy              =     -31.69316098 Ry
     Harris-Foulkes estimate   =     -31.69320589 Ry
     estimated scf accuracy    <       0.00011446 Ry

     iteration # 10     ecut=    80.00 Ry     beta= 0.40
     Davidson diagonalization with overlap
     ethr =  5.45E-07,  avg # of iterations =  4.0

     negative rho (up, down):  7.519E-06 0.000E+00

     total cpu time spent up to now is      235.2 secs

     total energy              =     -31.69318432 Ry
     Harris-Foulkes estimate   =     -31.69318656 Ry
     estimated scf accuracy    <       0.00000781 Ry

     iteration # 11     ecut=    80.00 Ry     beta= 0.40
     Davidson diagonalization with overlap
     ethr =  3.72E-08,  avg # of iterations =  3.0

     negative rho (up, down):  7.538E-06 0.000E+00

     total cpu time spent up to now is      236.2 secs

     total energy              =     -31.69318534 Ry
     Harris-Foulkes estimate   =     -31.69318583 Ry
     estimated scf accuracy    <       0.00000132 Ry

     iteration # 12     ecut=    80.00 Ry     beta= 0.40
     Davidson diagonalization with overlap
     ethr =  6.31E-09,  avg # of iterations =  5.0

     negative rho (up, down):  7.533E-06 0.000E+00

     total cpu time spent up to now is      237.3 secs

     End of self-consistent calculation

          k = 0.0000 0.0000 0.0000 (111965 PWs)   bands (ev):

    -9.6872  -7.7733  -7.7709  -7.4577  -6.6434  -6.6415  -5.3211  -3.8164
    -2.7947  -2.3838  -2.3834  -1.9690  -1.9674  -1.6905  -0.9056

     the Fermi energy is    -2.2863 ev

!    total energy              =     -31.69318520 Ry
     Harris-Foulkes estimate   =     -31.69318601 Ry
     estimated scf accuracy    <       0.00000095 Ry

     The total energy is the sum of the following terms:

     one-electron contribution =    -109.70398690 Ry
     hartree contribution      =      56.96393074 Ry
     xc contribution           =     -13.72313253 Ry
     ewald contribution        =      34.80234686 Ry
     smearing contrib. (-TS)   =      -0.03234336 Ry

     convergence has been achieved in  12 iterations

     negative rho (up, down):  7.533E-06 0.000E+00

     Forces acting on atoms (cartesian axes, Ry/au):

     atom    1 type  1   force =     0.01065339   -0.00604176    0.00000000
     atom    2 type  1   force =     0.00000000   -0.02362337    0.00000000
     atom    3 type  1   force =    -0.01065339   -0.00604176    0.00000000
     atom    4 type  1   force =     0.02045894    0.01170799    0.00000000
     atom    5 type  1   force =    -0.00000000    0.01224281    0.00000000
     atom    6 type  1   force =    -0.02045894    0.01170799    0.00000000
     atom    7 type  1   force =    -0.00000000    0.00004810    0.00000000

     Total force =     0.046035     Total SCF correction =     0.000579


     Computing stress (Cartesian axis) and pressure


     negative rho (up, down):  7.533E-06 0.000E+00
          total   stress  (Ry/bohr**3)                   (kbar)     P=   -3.47
  -0.00003526   0.00000000   0.00000000         -5.19      0.00      0.00
   0.00000000  -0.00003564  -0.00000000          0.00     -5.24     -0.00
   0.00000000   0.00000000   0.00000007          0.00      0.00      0.01


     number of scf cycles    =  10
     number of bfgs steps    =   9

     enthalpy old            =     -31.6899062442 Ry
     enthalpy new            =     -31.6931851972 Ry

     CASE: enthalpy_new < enthalpy_old

     new trust radius        =       0.3362386765 bohr
     new conv_thr            =       0.0000010000 Ry

     new unit-cell volume =   8287.23629 a.u.^3 (  1228.04170 Ang^3 )
     density =      0.28379 g/cm^3

CELL_PARAMETERS (alat= 16.84048341)
   0.944909931   0.000000000   0.000000000
  -0.472454965   0.818241187   0.000000000
   0.000000000   0.000000000   2.244265901

ATOMIC_POSITIONS (angstrom)
Al       1.641863449   1.484139550   0.000000000
Al       4.210348767   2.379079448   0.000000000
Al       6.778866078   1.484156742   0.000000000
Al      -2.060057188   6.101254545   0.000000000
Al       0.000030331   4.325900491   0.000000000
Al       2.060085857   6.101271737   0.000000000
Al       4.210379652   4.861251010   0.000000000



     Writing output data file 1al_planar_2x2_vcr.save/
     NEW-OLD atomic charge density approx. for the potential

     negative rho (up, down):  1.818E-05 0.000E+00
[...]
    -2.0945  -1.9801  -1.9708  -1.8374  -1.8342  -1.8006  -0.9090

     the Fermi energy is    -1.9857 ev

!    total energy              =     -31.73671975 Ry
     Harris-Foulkes estimate   =     -31.73671976 Ry
     estimated scf accuracy    <       0.00000002 Ry

     The total energy is the sum of the following terms:

     one-electron contribution =    -131.72454914 Ry
     hartree contribution      =      67.91727158 Ry
     xc contribution           =     -14.02103784 Ry
     ewald contribution        =      46.16363086 Ry
     smearing contrib. (-TS)   =      -0.07203521 Ry

     convergence has been achieved in   4 iterations

     negative rho (up, down):  5.607E-06 0.000E+00

     Forces acting on atoms (cartesian axes, Ry/au):

     atom    1 type  1   force =     0.00203276   -0.00082797    0.00000000
     atom    2 type  1   force =    -0.00000000    0.00174226    0.00000000
     atom    3 type  1   force =    -0.00203276   -0.00082797    0.00000000
     atom    4 type  1   force =    -0.00229588   -0.00097273    0.00000000
     atom    5 type  1   force =    -0.00000000    0.00132734    0.00000000
     atom    6 type  1   force =     0.00229588   -0.00097273    0.00000000
     atom    7 type  1   force =    -0.00000000    0.00053180    0.00000000

     Total force =     0.005211     Total SCF correction =     0.000081


     Computing stress (Cartesian axis) and pressure


     negative rho (up, down):  5.607E-06 0.000E+00
          total   stress  (Ry/bohr**3)                   (kbar)     P=    0.10
   0.00000348   0.00000000  -0.00000000          0.51      0.00     -0.00
   0.00000000  -0.00000146   0.00000000          0.00     -0.21      0.00
   0.00000000  -0.00000000  -0.00000006          0.00     -0.00     -0.01


     number of scf cycles    =  27
     number of bfgs steps    =  23

     enthalpy old            =     -31.7372101040 Ry
     enthalpy new            =     -31.7367197499 Ry

     CASE: enthalpy_new > enthalpy_old

     new trust radius        =       0.0000085994 bohr

     trust_radius < trust_radius_min

     resetting bfgs history

     Message from routine bfgs:
     history already reset at previous step: stopping
     new conv_thr            =       0.0000000945 Ry

     new unit-cell volume =   7078.15145 a.u.^3 (  1048.87382 Ang^3 )
     density =      0.33226 g/cm^3

CELL_PARAMETERS (alat= 16.84048341)
   0.873810066   0.000000000   0.000000000
  -0.436905033   0.755726821   0.000000000
   0.000000000   0.000000000   2.244265901

ATOMIC_POSITIONS (angstrom)
Al       1.372282917   1.454540080   0.000000000
Al       3.893540553   1.942455722   0.000000000
Al       6.414827773   1.454555958   0.000000000
Al      -1.684427779   5.762068610   0.000000000
Al       0.000028048   3.827231146   0.000000000
Al       1.684454291   5.762084488   0.000000000
Al       3.893569113   4.491382451   0.000000000



     Writing output data file 1al_planar_2x2_vcr.save/
     NEW-OLD atomic charge density approx. for the potential

     negative rho (up, down):  5.607E-06 0.000E+00

     total cpu time spent up to now is      690.0 secs

     Self-consistent Calculation

     iteration #  1     ecut=    80.00 Ry     beta= 0.40
     Davidson diagonalization with overlap
     ethr =  1.00E-06,  avg # of iterations =  1.0

     Threshold (ethr) on eigenvalues was too large:
     Diagonalizing with lowered threshold

     Davidson diagonalization with overlap
     ethr =  6.41E-10,  avg # of iterations =  4.0

     negative rho (up, down):  5.607E-06 0.000E+00

     total cpu time spent up to now is      691.6 secs

     total energy              =     -31.73671971 Ry
     Harris-Foulkes estimate   =     -31.73671981 Ry
     estimated scf accuracy    <       0.00000021 Ry

     iteration #  2     ecut=    80.00 Ry     beta= 0.40
     Davidson diagonalization with overlap
     ethr =  1.00E-09,  avg # of iterations =  2.0

     negative rho (up, down):  5.607E-06 0.000E+00

     total cpu time spent up to now is      692.5 secs

     total energy              =     -31.73671975 Ry
     Harris-Foulkes estimate   =     -31.73671980 Ry
     estimated scf accuracy    <       0.00000014 Ry

     iteration #  3     ecut=    80.00 Ry     beta= 0.40
     Davidson diagonalization with overlap
     ethr =  6.81E-10,  avg # of iterations =  2.0

     negative rho (up, down):  5.606E-06 0.000E+00

     total cpu time spent up to now is      693.3 secs

     End of self-consistent calculation

          k = 0.0000 0.0000 0.0000 (111965 PWs)   bands (ev):

   -10.6629  -8.0150  -8.0125  -8.0041  -7.0635  -6.9064  -6.9026  -4.3645
    -2.0946  -1.9804  -1.9710  -1.8376  -1.8344  -1.8008  -0.9092

     the Fermi energy is    -1.9859 ev

!    total energy              =     -31.73671977 Ry
     Harris-Foulkes estimate   =     -31.73671977 Ry
     estimated scf accuracy    <          6.9E-10 Ry

     The total energy is the sum of the following terms:

     one-electron contribution =    -131.72513872 Ry
     hartree contribution      =      67.91795416 Ry
     xc contribution           =     -14.02113266 Ry
     ewald contribution        =      46.16363015 Ry
     smearing contrib. (-TS)   =      -0.07203269 Ry

     convergence has been achieved in   3 iterations

     negative rho (up, down):  5.606E-06 0.000E+00

     Forces acting on atoms (cartesian axes, Ry/au):

     atom    1 type  1   force =     0.00202504   -0.00083673    0.00000000
     atom    2 type  1   force =    -0.00000000    0.00175575    0.00000000
     atom    3 type  1   force =    -0.00202504   -0.00083673    0.00000000
     atom    4 type  1   force =    -0.00230985   -0.00096953    0.00000000
     atom    5 type  1   force =    -0.00000000    0.00132608    0.00000000
     atom    6 type  1   force =     0.00230985   -0.00096953    0.00000000
     atom    7 type  1   force =    -0.00000000    0.00053067    0.00000000

     Total force =     0.005223     Total SCF correction =     0.000018


     Computing stress (Cartesian axis) and pressure


     negative rho (up, down):  5.606E-06 0.000E+00
          total   stress  (Ry/bohr**3)                   (kbar)     P=    0.10
   0.00000347   0.00000000   0.00000000          0.51      0.00      0.00
   0.00000000  -0.00000148   0.00000000          0.00     -0.22      0.00
   0.00000000   0.00000000   0.00000001          0.00      0.00      0.00


     bfgs converged in  28 scf cycles and  23 bfgs steps
     (criteria: energy <  1.0E-05 Ry, force <  1.0E-04Ry/Bohr, cell <  5.0E-05kbar)

     End of BFGS Geometry Optimization

     Final enthalpy =     -31.7367197686 Ry
Begin final coordinates
     new unit-cell volume =   7078.15145 a.u.^3 (  1048.87382 Ang^3 )
     density =      0.33226 g/cm^3

CELL_PARAMETERS (alat= 16.84048341)
   0.873810066   0.000000000   0.000000000
  -0.436905033   0.755726821   0.000000000
   0.000000000   0.000000000   2.244265901

ATOMIC_POSITIONS (angstrom)
Al       1.372282917   1.454540080   0.000000000
Al       3.893540553   1.942455722   0.000000000
Al       6.414827773   1.454555958   0.000000000
Al      -1.684427779   5.762068610   0.000000000
Al       0.000028048   3.827231146   0.000000000
Al       1.684454291   5.762084488   0.000000000
Al       3.893569113   4.491382451   0.000000000
End final coordinates



     Writing output data file 1al_planar_2x2_vcr.save/

     A final scf calculation at the relaxed structure.
     The G-vectors are recalculated for the final unit cell
     Results may differ from those at the preceding step.
 
     Parallelization info
     --------------------
     sticks:   dense  smooth     PW     G-vecs:    dense   smooth      PW
     Min         594     594    148                85530    85530   10678
     Max         595     595    149                85543    85543   10685
     Sum        4753    4753   1189               684267   684267   85451
 


     bravais-lattice index     =            4
     lattice parameter (alat)  =      16.8405  a.u.
     unit-cell volume          =    7078.1515 (a.u.)^3
     number of atoms/cell      =            7
     number of atomic types    =            1
     number of electrons       =        21.00
     number of Kohn-Sham states=           15
     kinetic-energy cutoff     =      80.0000  Ry
     charge density cutoff     =     320.0000  Ry
     convergence threshold     =      9.5E-08
     mixing beta               =       0.4000
     number of iterations used =            8  plain     mixing
     Exchange-correlation      = PBE ( 1  4  3  4 0 0)

     celldm(1)=  16.840483  celldm(2)=   0.000000  celldm(3)=   2.244266
     celldm(4)=   0.000000  celldm(5)=   0.000000  celldm(6)=   0.000000

     crystal axes: (cart. coord. in units of alat)
               a(1) = (   0.873810   0.000000   0.000000 )  
               a(2) = (  -0.436905   0.755727   0.000000 )  
               a(3) = (   0.000000   0.000000   2.244266 )  

     reciprocal axes: (cart. coord. in units 2 pi/alat)
               b(1) = (  1.144413  0.661615  0.000000 )  
               b(2) = ( -0.000000  1.323229  0.000000 )  
               b(3) = (  0.000000  0.000000  0.445580 )  


     PseudoPot. # 1 for Al read from file:
     ./Al.upf
     MD5 check sum: 4974d48a734c9d7d1eb6780a1419d19d
     Pseudo is Norm-conserving + core correction, Zval =  3.0
     Generated using ONCVPSP code by D. R. Hamann
     Using radial grid of 1876 points,  6 beta functions with: 
                l(1) =   0
                l(2) =   0
                l(3) =   1
                l(4) =   1
                l(5) =   2
                l(6) =   2

     atomic species   valence    mass     pseudopotential
        Al             3.00    29.98200     Al( 1.00)

      4 Sym. Ops. (no inversion) found ( 2 have fractional translation)



   Cartesian axes

     site n.     atom                  positions (alat units)
         1           Al  tau(   1) = (   0.1539884   0.1632187   0.0000000  )
         2           Al  tau(   2) = (   0.4369070   0.2179694   0.0000000  )
         3           Al  tau(   3) = (   0.7198290   0.1632205   0.0000000  )
         4           Al  tau(   4) = (  -0.1890152   0.6465807   0.0000000  )
         5           Al  tau(   5) = (   0.0000031   0.4294662   0.0000000  )
         6           Al  tau(   6) = (   0.1890182   0.6465825   0.0000000  )
         7           Al  tau(   7) = (   0.4369102   0.5039928   0.0000000  )

     number of k points=     1  Methfessel-Paxton smearing, width (Ry)=  0.0500
                       cart. coord. in units 2pi/alat
        k(    1) = (   0.0000000   0.0000000   0.0000000), wk =   2.0000000

     Dense  grid:   684267 G-vectors     FFT dimensions: (  90,  90, 216)

     Estimated max dynamical RAM per process >     101.89 MB

     Estimated total dynamical RAM >     815.14 MB

     Initial potential from superposition of free atoms

     starting charge   20.98287, renormalised to   21.00000

     negative rho (up, down):  1.841E-05 0.000E+00
     Starting wfcs are   28 randomized atomic wfcs

     total cpu time spent up to now is      703.8 secs

     Self-consistent Calculation

     iteration #  1     ecut=    80.00 Ry     beta= 0.40
     Davidson diagonalization with overlap
     c_bands:  1 eigenvalues not converged
     ethr =  1.00E-06,  avg # of iterations = 20.0

     negative rho (up, down):  3.955E-06 0.000E+00

     total cpu time spent up to now is      706.0 secs

     total energy              =     -31.70701572 Ry
     Harris-Foulkes estimate   =     -31.80858026 Ry
     estimated scf accuracy    <       0.30888995 Ry

     iteration #  2     ecut=    80.00 Ry     beta= 0.40
     Davidson diagonalization with overlap
     ethr =  1.47E-03,  avg # of iterations =  1.0

     negative rho (up, down):  4.559E-06 0.000E+00

     total cpu time spent up to now is      706.7 secs

     total energy              =     -31.73410126 Ry
     Harris-Foulkes estimate   =     -31.73764681 Ry
     estimated scf accuracy    <       0.02027699 Ry

     iteration #  3     ecut=    80.00 Ry     beta= 0.40
     Davidson diagonalization with overlap
     ethr =  9.66E-05,  avg # of iterations =  2.0

     negative rho (up, down):  5.068E-06 0.000E+00

     total cpu time spent up to now is      707.4 secs

     total energy              =     -31.73577620 Ry
     Harris-Foulkes estimate   =     -31.73690027 Ry
     estimated scf accuracy    <       0.00605528 Ry

     iteration #  4     ecut=    80.00 Ry     beta= 0.40
     Davidson diagonalization with overlap
     ethr =  2.88E-05,  avg # of iterations =  2.0

     negative rho (up, down):  5.845E-06 0.000E+00

     total cpu time spent up to now is      708.2 secs

     total energy              =     -31.73647228 Ry
     Harris-Foulkes estimate   =     -31.73665185 Ry
     estimated scf accuracy    <       0.00162052 Ry

     iteration #  5     ecut=    80.00 Ry     beta= 0.40
     Davidson diagonalization with overlap
     ethr =  7.72E-06,  avg # of iterations =  2.0

     negative rho (up, down):  5.842E-06 0.000E+00

     total cpu time spent up to now is      708.9 secs

     total energy              =     -31.73663869 Ry
     Harris-Foulkes estimate   =     -31.73664716 Ry
     estimated scf accuracy    <       0.00005011 Ry

     iteration #  6     ecut=    80.00 Ry     beta= 0.40
     Davidson diagonalization with overlap
     ethr =  2.39E-07,  avg # of iterations =  5.0

     negative rho (up, down):  5.781E-06 0.000E+00

     total cpu time spent up to now is      710.0 secs

     total energy              =     -31.73668359 Ry
     Harris-Foulkes estimate   =     -31.73668522 Ry
     estimated scf accuracy    <       0.00002073 Ry

     iteration #  7     ecut=    80.00 Ry     beta= 0.40
     Davidson diagonalization with overlap
     ethr =  9.87E-08,  avg # of iterations =  1.0

     negative rho (up, down):  5.611E-06 0.000E+00

     total cpu time spent up to now is      710.7 secs

     total energy              =     -31.73668388 Ry
     Harris-Foulkes estimate   =     -31.73668409 Ry
     estimated scf accuracy    <       0.00000827 Ry

     iteration #  8     ecut=    80.00 Ry     beta= 0.40
     Davidson diagonalization with overlap
     ethr =  3.94E-08,  avg # of iterations =  4.0

     negative rho (up, down):  5.615E-06 0.000E+00

     total cpu time spent up to now is      711.6 secs

     total energy              =     -31.73668493 Ry
     Harris-Foulkes estimate   =     -31.73668537 Ry
     estimated scf accuracy    <       0.00000127 Ry

     iteration #  9     ecut=    80.00 Ry     beta= 0.40
     Davidson diagonalization with overlap
     ethr =  6.03E-09,  avg # of iterations =  5.0

     negative rho (up, down):  5.622E-06 0.000E+00

     total cpu time spent up to now is      712.5 secs

     total energy              =     -31.73668504 Ry
     Harris-Foulkes estimate   =     -31.73668515 Ry
     estimated scf accuracy    <       0.00000024 Ry

     iteration # 10     ecut=    80.00 Ry     beta= 0.40
     Davidson diagonalization with overlap
     ethr =  1.14E-09,  avg # of iterations =  5.0

     negative rho (up, down):  5.609E-06 0.000E+00

     total cpu time spent up to now is      713.4 secs

     total energy              =     -31.73668503 Ry
     Harris-Foulkes estimate   =     -31.73668508 Ry
     estimated scf accuracy    <       0.00000015 Ry

     iteration # 11     ecut=    80.00 Ry     beta= 0.40
     Davidson diagonalization with overlap
     ethr =  7.18E-10,  avg # of iterations =  5.0

     negative rho (up, down):  5.603E-06 0.000E+00

     total cpu time spent up to now is      714.3 secs

     End of self-consistent calculation

          k = 0.0000 0.0000 0.0000 ( 85451 PWs)   bands (ev):

   -10.6628  -8.0150  -8.0125  -8.0039  -7.0635  -6.9064  -6.9026  -4.3645
    -2.0946  -1.9803  -1.9709  -1.8376  -1.8343  -1.8007  -0.9091

     the Fermi energy is    -1.9858 ev

!    total energy              =     -31.73668501 Ry
     Harris-Foulkes estimate   =     -31.73668506 Ry
     estimated scf accuracy    <       0.00000007 Ry

     The total energy is the sum of the following terms:

     one-electron contribution =    -131.72492978 Ry
     hartree contribution      =      67.91775993 Ry
     xc contribution           =     -14.02111099 Ry
     ewald contribution        =      46.16363015 Ry
     smearing contrib. (-TS)   =      -0.07203432 Ry

     convergence has been achieved in  11 iterations

     negative rho (up, down):  5.603E-06 0.000E+00

     Forces acting on atoms (cartesian axes, Ry/au):

     atom    1 type  1   force =     0.00203376   -0.00084865    0.00000000
     atom    2 type  1   force =    -0.00000000    0.00174796    0.00000000
     atom    3 type  1   force =    -0.00203376   -0.00084865    0.00000000
     atom    4 type  1   force =    -0.00231550   -0.00096648    0.00000000
     atom    5 type  1   force =    -0.00000000    0.00134099    0.00000000
     atom    6 type  1   force =     0.00231550   -0.00096648    0.00000000
     atom    7 type  1   force =    -0.00000000    0.00054131    0.00000000

     Total force =     0.005239     Total SCF correction =     0.000169


     Computing stress (Cartesian axis) and pressure


     negative rho (up, down):  5.603E-06 0.000E+00
          total   stress  (Ry/bohr**3)                   (kbar)     P=    0.10
   0.00000348   0.00000000   0.00000000          0.51      0.00      0.00
   0.00000000  -0.00000148   0.00000000          0.00     -0.22      0.00
   0.00000000   0.00000000  -0.00000001          0.00      0.00     -0.00


     Writing output data file 1al_planar_2x2_vcr.save/
 
     init_run     :      6.58s CPU      6.76s WALL (       2 calls)
     electrons    :    323.60s CPU    327.69s WALL (      29 calls)
     update_pot   :    137.61s CPU    137.96s WALL (      27 calls)
     forces       :     79.47s CPU     79.69s WALL (      29 calls)
     stress       :    160.99s CPU    162.82s WALL (      29 calls)

     Called by init_run:
     wfcinit      :      0.60s CPU      0.65s WALL (       2 calls)
     potinit      :      2.34s CPU      2.40s WALL (       2 calls)
     hinit0       :      3.18s CPU      3.24s WALL (       2 calls)

     Called by electrons:
     c_bands      :    218.98s CPU    220.91s WALL (     322 calls)
     sum_band     :     37.51s CPU     38.02s WALL (     322 calls)
     v_of_rho     :     58.52s CPU     59.02s WALL (     349 calls)
     mix_rho      :     10.77s CPU     10.92s WALL (     322 calls)

     Called by c_bands:
     init_us_2    :      5.91s CPU      5.95s WALL (     646 calls)
     cegterg      :    172.94s CPU    174.59s WALL (     322 calls)

     Called by sum_band:

     Called by *egterg:
     h_psi        :    153.66s CPU    155.22s WALL (    1400 calls)
     g_psi        :      0.93s CPU      0.94s WALL (    1076 calls)
     cdiaghg      :      0.74s CPU      0.78s WALL (    1369 calls)

     Called by h_psi:
     h_psi:pot    :    153.12s CPU    154.67s WALL (    1400 calls)
     h_psi:calbec :     16.40s CPU     16.48s WALL (    1400 calls)
     vloc_psi     :    117.97s CPU    119.40s WALL (    1400 calls)
     add_vuspsi   :     18.74s CPU     18.79s WALL (    1400 calls)

     General routines
     calbec       :     18.69s CPU     18.80s WALL (    1545 calls)
     fft          :     38.29s CPU     38.85s WALL (    4244 calls)
     ffts         :      2.67s CPU      2.70s WALL (     322 calls)
     fftw         :    125.16s CPU    126.77s WALL (   32908 calls)
 
     Parallel routines
     fft_scatt_xy :     22.86s CPU     22.97s WALL (   37474 calls)
     fft_scatt_yz :     66.08s CPU     67.66s WALL (   37474 calls)
 
     PWSCF        : 11m49.60s CPU    11m57.93s WALL

 
   This run was terminated on:  11:24:49  25Nov2020            

=------------------------------------------------------------------------------=
   JOB DONE.
=------------------------------------------------------------------------------=
