
     Program PWSCF v.6.3MaX starts on 25Nov2020 at 11:14: 4 

     This program is part of the open-source Quantum ESPRESSO suite
     for quantum simulation of materials; please cite
         "P. Giannozzi et al., J. Phys.:Condens. Matter 21 395502 (2009);
         "P. Giannozzi et al., J. Phys.:Condens. Matter 29 465901 (2017);
          URL http://www.quantum-espresso.org", 
     in publications or presentations arising from this work. More details at
     http://www.quantum-espresso.org/quote

     Parallel version (MPI), running on     8 processors

     MPI processes distributed on     3 nodes
     R & G space division:  proc/nbgrp/npool/nimage =       8
     Waiting for input...
     Reading input from standard input

     Current dimensions of program PWSCF are:
     Max number of different atomic species (ntypx) = 10
     Max number of k-points (npk) =  40000
     Max angular momentum in pseudopotentials (lmaxx) =  3

     Subspace diagonalization in iterative solution of the eigenvalue problem:
     a serial algorithm will be used

     Message from routine find_sym:
     Not a group! Trying with lower acceptance parameter...
     Message from routine find_sym:
     Symmetry operations form a group
 
     Parallelization info
     --------------------
     sticks:   dense  smooth     PW     G-vecs:    dense   smooth      PW
     Min         778     778    194               112122   112122   13992
     Max         779     779    195               112130   112130   14001
     Sum        6229    6229   1555               896999   896999  111965
 


     bravais-lattice index     =            4
     lattice parameter (alat)  =      16.8405  a.u.
     unit-cell volume          =    9282.5779 (a.u.)^3
     number of atoms/cell      =            7
     number of atomic types    =            1
     number of electrons       =        21.00
     number of Kohn-Sham states=           15
     kinetic-energy cutoff     =      80.0000  Ry
     charge density cutoff     =     320.0000  Ry
     convergence threshold     =      1.0E-06
     mixing beta               =       0.4000
     number of iterations used =            8  plain     mixing
     Exchange-correlation      = PBE ( 1  4  3  4 0 0)
     nstep                     =          300


     celldm(1)=  16.840483  celldm(2)=   0.000000  celldm(3)=   2.244266
     celldm(4)=   0.000000  celldm(5)=   0.000000  celldm(6)=   0.000000

     crystal axes: (cart. coord. in units of alat)
               a(1) = (   1.000000   0.000000   0.000000 )  
               a(2) = (  -0.500000   0.866025   0.000000 )  
               a(3) = (   0.000000   0.000000   2.244266 )  

     reciprocal axes: (cart. coord. in units 2 pi/alat)
               b(1) = (  1.000000  0.577350  0.000000 )  
               b(2) = (  0.000000  1.154701  0.000000 )  
               b(3) = (  0.000000  0.000000  0.445580 )  


     PseudoPot. # 1 for Al read from file:
     ./Al.upf
     MD5 check sum: 4974d48a734c9d7d1eb6780a1419d19d
     Pseudo is Norm-conserving + core correction, Zval =  3.0
     Generated using ONCVPSP code by D. R. Hamann
     Using radial grid of 1876 points,  6 beta functions with: 
                l(1) =   0
                l(2) =   0
                l(3) =   1
                l(4) =   1
                l(5) =   2
                l(6) =   2

     atomic species   valence    mass     pseudopotential
        Al             3.00    29.98200     Al( 1.00)

      2 Sym. Ops. (no inversion) found



   Cartesian axes

     site n.     atom                  positions (alat units)
         1           Al  tau(   1) = (   0.0000001   0.2886786   0.0000000  )
         2           Al  tau(   2) = (   0.2500030   0.1443392   0.0000000  )
         3           Al  tau(   3) = (   0.5000023   0.2886806   0.0000000  )
         4           Al  tau(   4) = (  -0.2499995   0.7216943   0.0000000  )
         5           Al  tau(   5) = (   0.0000036   0.5773550   0.0000000  )
         6           Al  tau(   6) = (   0.2500029   0.7216963   0.0000000  )
         7           Al  tau(   7) = (   0.5000059   0.5773570   0.0000000  )

     number of k points=     1  Methfessel-Paxton smearing, width (Ry)=  0.0500
                       cart. coord. in units 2pi/alat
        k(    1) = (   0.0000000   0.0000000   0.0000000), wk =   2.0000000

     Dense  grid:   896999 G-vectors     FFT dimensions: (  96,  96, 216)

     Estimated max dynamical RAM per process >     127.42 MB

     Estimated total dynamical RAM >    1019.39 MB

     Initial potential from superposition of free atoms

     starting charge   20.98287, renormalised to   21.00000

     negative rho (up, down):  2.280E-05 0.000E+00
     Starting wfcs are   28 randomized atomic wfcs

     total cpu time spent up to now is        4.2 secs

     Self-consistent Calculation

     iteration #  1     ecut=    80.00 Ry     beta= 0.40
     Davidson diagonalization with overlap
     ethr =  1.00E-02,  avg # of iterations =  2.0

     total cpu time spent up to now is        5.5 secs

     total energy              =     -31.66590928 Ry
     Harris-Foulkes estimate   =     -31.75250681 Ry
     estimated scf accuracy    <       0.28995678 Ry

     iteration #  2     ecut=    80.00 Ry     beta= 0.40
     Davidson diagonalization with overlap
     ethr =  1.38E-03,  avg # of iterations =  2.0

     total cpu time spent up to now is        6.5 secs

     total energy              =     -31.66520364 Ry
     Harris-Foulkes estimate   =     -31.68730870 Ry
     estimated scf accuracy    <       0.06444367 Ry

     iteration #  3     ecut=    80.00 Ry     beta= 0.40
     Davidson diagonalization with overlap
     ethr =  3.07E-04,  avg # of iterations =  2.0

     total cpu time spent up to now is        7.6 secs

     total energy              =     -31.67541152 Ry
     Harris-Foulkes estimate   =     -31.67783845 Ry
     estimated scf accuracy    <       0.00952221 Ry

     iteration #  4     ecut=    80.00 Ry     beta= 0.40
     Davidson diagonalization with overlap
     ethr =  4.53E-05,  avg # of iterations =  4.0

     total cpu time spent up to now is        8.8 secs

     total energy              =     -31.67551487 Ry
     Harris-Foulkes estimate   =     -31.67677320 Ry
     estimated scf accuracy    <       0.00272824 Ry

     iteration #  5     ecut=    80.00 Ry     beta= 0.40
     Davidson diagonalization with overlap
     ethr =  1.30E-05,  avg # of iterations =  9.0

     total cpu time spent up to now is       10.3 secs

     total energy              =     -31.67640615 Ry
     Harris-Foulkes estimate   =     -31.67809183 Ry
     estimated scf accuracy    <       0.00630053 Ry

     iteration #  6     ecut=    80.00 Ry     beta= 0.40
     Davidson diagonalization with overlap
     ethr =  1.30E-05,  avg # of iterations =  2.0

     total cpu time spent up to now is       11.4 secs

     total energy              =     -31.67635834 Ry
     Harris-Foulkes estimate   =     -31.67684114 Ry
     estimated scf accuracy    <       0.00099452 Ry

     iteration #  7     ecut=    80.00 Ry     beta= 0.40
     Davidson diagonalization with overlap
     ethr =  4.74E-06,  avg # of iterations =  3.0

     total cpu time spent up to now is       12.7 secs

     total energy              =     -31.67661820 Ry
     Harris-Foulkes estimate   =     -31.67668086 Ry
     estimated scf accuracy    <       0.00017975 Ry

     iteration #  8     ecut=    80.00 Ry     beta= 0.40
     Davidson diagonalization with overlap
     ethr =  8.56E-07,  avg # of iterations =  2.0

     total cpu time spent up to now is       13.8 secs

     total energy              =     -31.67664763 Ry
     Harris-Foulkes estimate   =     -31.67665624 Ry
     estimated scf accuracy    <       0.00003007 Ry

     iteration #  9     ecut=    80.00 Ry     beta= 0.40
     Davidson diagonalization with overlap
     ethr =  1.43E-07,  avg # of iterations =  2.0

     total cpu time spent up to now is       14.9 secs

     total energy              =     -31.67665094 Ry
     Harris-Foulkes estimate   =     -31.67665222 Ry
     estimated scf accuracy    <       0.00000289 Ry

     iteration # 10     ecut=    80.00 Ry     beta= 0.40
     Davidson diagonalization with overlap
     ethr =  1.37E-08,  avg # of iterations =  3.0

     total cpu time spent up to now is       16.2 secs

     total energy              =     -31.67665268 Ry
     Harris-Foulkes estimate   =     -31.67665308 Ry
     estimated scf accuracy    <       0.00000155 Ry

     iteration # 11     ecut=    80.00 Ry     beta= 0.40
     Davidson diagonalization with overlap
     ethr =  7.39E-09,  avg # of iterations =  2.0

     total cpu time spent up to now is       17.2 secs

     End of self-consistent calculation

          k = 0.0000 0.0000 0.0000 (111965 PWs)   bands (ev):

    -9.6455  -8.0770  -8.0768  -7.5206  -6.5558  -6.5557  -4.1827  -3.7992
    -3.2630  -2.8080  -2.8077  -2.2405  -2.2404  -1.7272  -0.8760

     the Fermi energy is    -2.6606 ev

!    total energy              =     -31.67665257 Ry
     Harris-Foulkes estimate   =     -31.67665281 Ry
     estimated scf accuracy    <       0.00000033 Ry

     The total energy is the sum of the following terms:

     one-electron contribution =    -103.79291946 Ry
     hartree contribution      =      53.99035431 Ry
     xc contribution           =     -13.76135165 Ry
     ewald contribution        =      31.90165254 Ry
     smearing contrib. (-TS)   =      -0.01438831 Ry

     convergence has been achieved in  11 iterations

     Forces acting on atoms (cartesian axes, Ry/au):

     atom    1 type  1   force =    -0.00931611   -0.00539069    0.00000000
     atom    2 type  1   force =    -0.00002759   -0.00270938    0.00000000
     atom    3 type  1   force =     0.00933732   -0.00536170    0.00000000
     atom    4 type  1   force =    -0.00000244   -0.00003065    0.00000000
     atom    5 type  1   force =    -0.00237116    0.00136780    0.00000000
     atom    6 type  1   force =     0.00004576    0.01074851    0.00000000
     atom    7 type  1   force =     0.00233423    0.00137611    0.00000000

     Total force =     0.019222     Total SCF correction =     0.000453


     Computing stress (Cartesian axis) and pressure

          total   stress  (Ry/bohr**3)                   (kbar)     P=   -1.45
  -0.00001476   0.00000001   0.00000000         -2.17      0.00      0.00
   0.00000001  -0.00001475   0.00000000          0.00     -2.17      0.00
   0.00000000   0.00000000   0.00000002          0.00      0.00      0.00


     BFGS Geometry Optimization

     number of scf cycles    =   1
     number of bfgs steps    =   0

     enthalpy new            =     -31.6766525655 Ry

     new trust radius        =       0.0107672340 bohr
     new conv_thr            =       0.0000010000 Ry

     new unit-cell volume =   9275.73157 a.u.^3 (  1374.52159 Ang^3 )
     density =      0.25355 g/cm^3

CELL_PARAMETERS (alat= 16.84048341)
   0.999631042   0.000000163   0.000000000
  -0.499815380   0.865705995   0.000000000
   0.000000000   0.000000000   2.244265901

ATOMIC_POSITIONS (angstrom)
Al      -0.004927051   2.568787709   0.000000000
Al       2.227090344   1.284386287   0.000000000
Al       4.459115891   2.568821958   0.000000000
Al      -2.227073470   6.429062943   0.000000000
Al      -0.001221377   5.143982913   0.000000000
Al       2.227128816   6.434783839   0.000000000
Al       4.455444476   5.144006222   0.000000000



     Writing output data file 4al_planar_2x2_vcr.save/
     NEW-OLD atomic charge density approx. for the potential

     negative rho (up, down):  1.028E-07 0.000E+00
     extrapolated charge   20.98451, renormalised to   21.00000

     total cpu time spent up to now is       29.3 secs

     Self-consistent Calculation

     iteration #  1     ecut=    80.00 Ry     beta= 0.40
     Davidson diagonalization with overlap
     ethr =  1.00E-06,  avg # of iterations =  4.0

     negative rho (up, down):  5.106E-08 0.000E+00

     total cpu time spent up to now is       30.5 secs

     total energy              =     -31.67707196 Ry
     Harris-Foulkes estimate   =     -31.74696879 Ry
     estimated scf accuracy    <       0.00005506 Ry

     iteration #  2     ecut=    80.00 Ry     beta= 0.40
     Davidson diagonalization with overlap
     ethr =  2.62E-07,  avg # of iterations =  5.0

     negative rho (up, down):  3.961E-08 0.000E+00

     total cpu time spent up to now is       31.7 secs

     total energy              =     -31.67710690 Ry
     Harris-Foulkes estimate   =     -31.67713341 Ry
     estimated scf accuracy    <       0.00011257 Ry

     iteration #  3     ecut=    80.00 Ry     beta= 0.40
     Davidson diagonalization with overlap
     ethr =  2.62E-07,  avg # of iterations =  2.0

     negative rho (up, down):  3.761E-08 0.000E+00

     total cpu time spent up to now is       32.7 secs

     total energy              =     -31.67711496 Ry
     Harris-Foulkes estimate   =     -31.67711536 Ry
     estimated scf accuracy    <       0.00001299 Ry

     iteration #  4     ecut=    80.00 Ry     beta= 0.40
     Davidson diagonalization with overlap
     ethr =  6.19E-08,  avg # of iterations =  4.0

     negative rho (up, down):  2.473E-08 0.000E+00

     total cpu time spent up to now is       33.7 secs

     total energy              =     -31.67711381 Ry
     Harris-Foulkes estimate   =     -31.67711523 Ry
     estimated scf accuracy    <       0.00001116 Ry

     iteration #  5     ecut=    80.00 Ry     beta= 0.40
     Davidson diagonalization with overlap
     ethr =  5.31E-08,  avg # of iterations =  1.0

     total cpu time spent up to now is       34.7 secs

     total energy              =     -31.67711269 Ry
     Harris-Foulkes estimate   =     -31.67711418 Ry
     estimated scf accuracy    <       0.00000617 Ry

     iteration #  6     ecut=    80.00 Ry     beta= 0.40
     Davidson diagonalization with overlap
     ethr =  2.94E-08,  avg # of iterations =  1.0

     total cpu time spent up to now is       35.6 secs

     total energy              =     -31.67711312 Ry
     Harris-Foulkes estimate   =     -31.67711333 Ry
     estimated scf accuracy    <       0.00000107 Ry

     iteration #  7     ecut=    80.00 Ry     beta= 0.40
     Davidson diagonalization with overlap
     ethr =  5.10E-09,  avg # of iterations =  4.0

     total cpu time spent up to now is       36.8 secs

     End of self-consistent calculation

          k = 0.0000 0.0000 0.0000 (111965 PWs)   bands (ev):

    -9.6443  -8.0721  -8.0720  -7.5181  -6.5577  -6.5576  -4.1956  -3.7981
    -3.2584  -2.8029  -2.8027  -2.2366  -2.2366  -1.7250  -0.8777

     the Fermi energy is    -2.6558 ev

!    total energy              =     -31.67711306 Ry
     Harris-Foulkes estimate   =     -31.67711372 Ry
     estimated scf accuracy    <       0.00000087 Ry

     The total energy is the sum of the following terms:

     one-electron contribution =    -103.83198149 Ry
     hartree contribution      =      54.01101176 Ry
     xc contribution           =     -13.76014808 Ry
     ewald contribution        =      31.91856686 Ry
     smearing contrib. (-TS)   =      -0.01456211 Ry

     convergence has been achieved in   7 iterations

     Forces acting on atoms (cartesian axes, Ry/au):

     atom    1 type  1   force =    -0.00886553   -0.00513630    0.00000000
     atom    2 type  1   force =    -0.00000059   -0.00185464    0.00000000
     atom    3 type  1   force =     0.00886830   -0.00510348    0.00000000
     atom    4 type  1   force =    -0.00001077    0.00000472    0.00000000
     atom    5 type  1   force =    -0.00162117    0.00092841    0.00000000
     atom    6 type  1   force =     0.00003166    0.01024325    0.00000000
     atom    7 type  1   force =     0.00159810    0.00091804    0.00000000

     Total force =     0.018026     Total SCF correction =     0.000707


     Computing stress (Cartesian axis) and pressure

          total   stress  (Ry/bohr**3)                   (kbar)     P=   -1.48
  -0.00001517  -0.00000000   0.00000000         -2.23     -0.00      0.00
  -0.00000000  -0.00001518   0.00000000         -0.00     -2.23      0.00
   0.00000000   0.00000000   0.00000011          0.00      0.00      0.02


     number of scf cycles    =   2
     number of bfgs steps    =   1

     enthalpy old            =     -31.6766525655 Ry
     enthalpy new            =     -31.6771130587 Ry

     CASE: enthalpy_new < enthalpy_old


     WARNING: bfgs curvature condition failed, Theta= 0.838
     new trust radius        =       0.0161448907 bohr
     new conv_thr            =       0.0000004605 Ry

     new unit-cell volume =   9265.03131 a.u.^3 (  1372.93597 Ang^3 )
     density =      0.25384 g/cm^3

CELL_PARAMETERS (alat= 16.84048341)
   0.999054238   0.000000267   0.000000000
  -0.499526888   0.865206525   0.000000000
   0.000000000   0.000000000   2.244265901

ATOMIC_POSITIONS (angstrom)
Al      -0.012313235   2.563027286   0.000000000
Al       2.225794695   1.281811557   0.000000000
Al       4.463941705   2.563087255   0.000000000
Al      -2.225793351   6.425344280   0.000000000
Al      -0.002824354   5.141937843   0.000000000
Al       2.225875522   6.439603691   0.000000000
Al       4.454454326   5.141960238   0.000000000



     Writing output data file 4al_planar_2x2_vcr.save/
     NEW-OLD atomic charge density approx. for the potential

     negative rho (up, down):  1.646E-07 0.000E+00
     extrapolated charge   20.97577, renormalised to   21.00000

     total cpu time spent up to now is       47.8 secs

     Self-consistent Calculation

     iteration #  1     ecut=    80.00 Ry     beta= 0.40
     Davidson diagonalization with overlap
     ethr =  1.00E-06,  avg # of iterations =  4.0

     negative rho (up, down):  8.316E-08 0.000E+00

     total cpu time spent up to now is       49.1 secs

     total energy              =     -31.67768195 Ry
     Harris-Foulkes estimate   =     -31.78714308 Ry
     estimated scf accuracy    <       0.00012096 Ry

     iteration #  2     ecut=    80.00 Ry     beta= 0.40
     Davidson diagonalization with overlap
     ethr =  5.76E-07,  avg # of iterations =  5.0

     negative rho (up, down):  6.557E-08 0.000E+00

     total cpu time spent up to now is       50.2 secs

     total energy              =     -31.67775492 Ry
     Harris-Foulkes estimate   =     -31.67781845 Ry
     estimated scf accuracy    <       0.00027827 Ry

     iteration #  3     ecut=    80.00 Ry     beta= 0.40
     Davidson diagonalization with overlap
     ethr =  5.76E-07,  avg # of iterations =  2.0

     negative rho (up, down):  5.791E-08 0.000E+00

     total cpu time spent up to now is       51.2 secs

     total energy              =     -31.67777308 Ry
     Harris-Foulkes estimate   =     -31.67777511 Ry
     estimated scf accuracy    <       0.00003163 Ry

     iteration #  4     ecut=    80.00 Ry     beta= 0.40
     Davidson diagonalization with overlap
     ethr =  1.51E-07,  avg # of iterations =  1.0

     total cpu time spent up to now is       52.1 secs

     total energy              =     -31.67776578 Ry
     Harris-Foulkes estimate   =     -31.67777364 Ry
     estimated scf accuracy    <       0.00002305 Ry

     iteration #  5     ecut=    80.00 Ry     beta= 0.40
     Davidson diagonalization with overlap
     ethr =  1.10E-07,  avg # of iterations =  4.0

     total cpu time spent up to now is       53.2 secs

     total energy              =     -31.67777051 Ry
     Harris-Foulkes estimate   =     -31.67777104 Ry
     estimated scf accuracy    <       0.00000289 Ry

     iteration #  6     ecut=    80.00 Ry     beta= 0.40
     Davidson diagonalization with overlap
     ethr =  1.38E-08,  avg # of iterations =  3.0

     total cpu time spent up to now is       54.3 secs

     total energy              =     -31.67777064 Ry
     Harris-Foulkes estimate   =     -31.67777082 Ry
     estimated scf accuracy    <       0.00000173 Ry

     iteration #  7     ecut=    80.00 Ry     beta= 0.40
     Davidson diagonalization with overlap
     ethr =  8.26E-09,  avg # of iterations =  1.0

     total cpu time spent up to now is       55.2 secs

     total energy              =     -31.67777008 Ry
     Harris-Foulkes estimate   =     -31.67777067 Ry
     estimated scf accuracy    <       0.00000129 Ry

     iteration #  8     ecut=    80.00 Ry     beta= 0.40
     Davidson diagonalization with overlap
     ethr =  6.14E-09,  avg # of iterations =  2.0

     total cpu time spent up to now is       56.2 secs

     End of self-consistent calculation

          k = 0.0000 0.0000 0.0000 (111965 PWs)   bands (ev):

    -9.6415  -8.0637  -8.0636  -7.5131  -6.5600  -6.5600  -4.2167  -3.7960
    -3.2507  -2.7937  -2.7936  -2.2303  -2.2303  -1.7214  -0.8802

     the Fermi energy is    -2.6474 ev

!    total energy              =     -31.67777035 Ry
     Harris-Foulkes estimate   =     -31.67777050 Ry
     estimated scf accuracy    <       0.00000021 Ry

     The total energy is the sum of the following terms:

     one-electron contribution =    -103.89318663 Ry
     hartree contribution      =      54.04143645 Ry
     xc contribution           =     -13.75792059 Ry
     ewald contribution        =      31.94678441 Ry
     smearing contrib. (-TS)   =      -0.01488399 Ry

     convergence has been achieved in   8 iterations

     Forces acting on atoms (cartesian axes, Ry/au):

     atom    1 type  1   force =    -0.00822234   -0.00475436    0.00000000
     atom    2 type  1   force =    -0.00000064   -0.00066052    0.00000000
     atom    3 type  1   force =     0.00822208   -0.00473642    0.00000000
     atom    4 type  1   force =     0.00000146    0.00000257    0.00000000
     atom    5 type  1   force =    -0.00058000    0.00033022    0.00000000
     atom    6 type  1   force =     0.00001288    0.00949696    0.00000000
     atom    7 type  1   force =     0.00056656    0.00032155    0.00000000

     Total force =     0.016485     Total SCF correction =     0.000253


     Computing stress (Cartesian axis) and pressure

          total   stress  (Ry/bohr**3)                   (kbar)     P=   -1.55
  -0.00001580  -0.00000001   0.00000000         -2.32     -0.00      0.00
  -0.00000001  -0.00001580   0.00000000         -0.00     -2.32      0.00
   0.00000000   0.00000000   0.00000008          0.00      0.00      0.01


     number of scf cycles    =   3
     number of bfgs steps    =   2

     enthalpy old            =     -31.6771130587 Ry
     enthalpy new            =     -31.6777703475 Ry

     CASE: enthalpy_new < enthalpy_old

     new trust radius        =       0.0242033652 bohr
     new conv_thr            =       0.0000006573 Ry

     new unit-cell volume =   9247.88480 a.u.^3 (  1370.39512 Ang^3 )
     density =      0.25431 g/cm^3

CELL_PARAMETERS (alat= 16.84048341)
   0.998129268   0.000000233   0.000000000
  -0.499064432   0.864405636   0.000000000
   0.000000000   0.000000000   2.244265901

ATOMIC_POSITIONS (angstrom)
Al      -0.023378843   2.554248516   0.000000000
Al       2.223716341   1.278646159   0.000000000
Al       4.470898274   2.554336299   0.000000000
Al      -2.223732006   6.419378921   0.000000000
Al      -0.004555373   5.138175434   0.000000000
Al       2.223849196   6.446428951   0.000000000
Al       4.452032858   5.138197355   0.000000000



     Writing output data file 4al_planar_2x2_vcr.save/
     NEW-OLD atomic charge density approx. for the potential

     negative rho (up, down):  2.567E-07 0.000E+00
     extrapolated charge   20.96110, renormalised to   21.00000

     total cpu time spent up to now is       67.3 secs

     Self-consistent Calculation

     iteration #  1     ecut=    80.00 Ry     beta= 0.40
     Davidson diagonalization with overlap
     ethr =  1.00E-06,  avg # of iterations =  4.0

     negative rho (up, down):  1.321E-07 0.000E+00

     total cpu time spent up to now is       68.7 secs

     total energy              =     -31.67848632 Ry
     Harris-Foulkes estimate   =     -31.85445866 Ry
     estimated scf accuracy    <       0.00027020 Ry

     iteration #  2     ecut=    80.00 Ry     beta= 0.40
     Davidson diagonalization with overlap
     ethr =  1.29E-06,  avg # of iterations =  5.0

     negative rho (up, down):  1.047E-07 0.000E+00

     total cpu time spent up to now is       69.9 secs

     total energy              =     -31.67866646 Ry
     Harris-Foulkes estimate   =     -31.67880777 Ry
     estimated scf accuracy    <       0.00062505 Ry

     iteration #  3     ecut=    80.00 Ry     beta= 0.40
     Davidson diagonalization with overlap
     ethr =  1.29E-06,  avg # of iterations =  2.0

     negative rho (up, down):  8.832E-08 0.000E+00

     total cpu time spent up to now is       70.8 secs

     total energy              =     -31.67870398 Ry
     Harris-Foulkes estimate   =     -31.67871092 Ry
     estimated scf accuracy    <       0.00007798 Ry

     iteration #  4     ecut=    80.00 Ry     beta= 0.40
     Davidson diagonalization with overlap
     ethr =  3.71E-07,  avg # of iterations =  1.0

     total cpu time spent up to now is       71.7 secs

     total energy              =     -31.67868525 Ry
     Harris-Foulkes estimate   =     -31.67870554 Ry
     estimated scf accuracy    <       0.00005173 Ry

     iteration #  5     ecut=    80.00 Ry     beta= 0.40
     Davidson diagonalization with overlap
     ethr =  2.46E-07,  avg # of iterations =  5.0

     total cpu time spent up to now is       72.9 secs

     total energy              =     -31.67870151 Ry
     Harris-Foulkes estimate   =     -31.67870205 Ry
     estimated scf accuracy    <       0.00001184 Ry

     iteration #  6     ecut=    80.00 Ry     beta= 0.40
     Davidson diagonalization with overlap
     ethr =  5.64E-08,  avg # of iterations =  1.0

     total cpu time spent up to now is       73.8 secs

     total energy              =     -31.67869830 Ry
     Harris-Foulkes estimate   =     -31.67870172 Ry
     estimated scf accuracy    <       0.00001100 Ry

     iteration #  7     ecut=    80.00 Ry     beta= 0.40
     Davidson diagonalization with overlap
     ethr =  5.24E-08,  avg # of iterations =  1.0

     total cpu time spent up to now is       74.7 secs

     total energy              =     -31.67869788 Ry
     Harris-Foulkes estimate   =     -31.67869899 Ry
     estimated scf accuracy    <       0.00000280 Ry

     iteration #  8     ecut=    80.00 Ry     beta= 0.40
     Davidson diagonalization with overlap
     ethr =  1.33E-08,  avg # of iterations =  5.0

     total cpu time spent up to now is       75.9 secs

     total energy              =     -31.67869876 Ry
     Harris-Foulkes estimate   =     -31.67869889 Ry
     estimated scf accuracy    <       0.00000071 Ry

     iteration #  9     ecut=    80.00 Ry     beta= 0.40
     Davidson diagonalization with overlap
     ethr =  3.40E-09,  avg # of iterations =  2.0

     total cpu time spent up to now is       76.9 secs

     End of self-consistent calculation

          k = 0.0000 0.0000 0.0000 (111965 PWs)   bands (ev):

    -9.6393  -8.0531  -8.0529  -7.5072  -6.5637  -6.5636  -4.2471  -3.7939
    -3.2399  -2.7809  -2.7809  -2.2219  -2.2217  -1.7167  -0.8833

     the Fermi energy is    -2.6358 ev

!    total energy              =     -31.67869848 Ry
     Harris-Foulkes estimate   =     -31.67869883 Ry
     estimated scf accuracy    <       0.00000049 Ry

     The total energy is the sum of the following terms:

     one-electron contribution =    -104.00122410 Ry
     hartree contribution      =      54.09712194 Ry
     xc contribution           =     -13.75540551 Ry
     ewald contribution        =      31.99615494 Ry
     smearing contrib. (-TS)   =      -0.01534575 Ry

     convergence has been achieved in   9 iterations

     Forces acting on atoms (cartesian axes, Ry/au):

     atom    1 type  1   force =    -0.00732981   -0.00423008    0.00000000
     atom    2 type  1   force =    -0.00001247    0.00088598    0.00000000
     atom    3 type  1   force =     0.00733799   -0.00423371    0.00000000
     atom    4 type  1   force =     0.00000246    0.00000769    0.00000000
     atom    5 type  1   force =     0.00077318   -0.00045454    0.00000000
     atom    6 type  1   force =    -0.00000025    0.00846970    0.00000000
     atom    7 type  1   force =    -0.00077109   -0.00044505    0.00000000

     Total force =     0.014748     Total SCF correction =     0.000323


     Computing stress (Cartesian axis) and pressure

          total   stress  (Ry/bohr**3)                   (kbar)     P=   -1.62
  -0.00001662  -0.00000001   0.00000000         -2.44     -0.00      0.00
  -0.00000001  -0.00001663   0.00000000         -0.00     -2.45      0.00
   0.00000000   0.00000000   0.00000016          0.00      0.00      0.02


     number of scf cycles    =   4
     number of bfgs steps    =   3

     enthalpy old            =     -31.6777703475 Ry
     enthalpy new            =     -31.6786984770 Ry

     CASE: enthalpy_new < enthalpy_old

     new trust radius        =       0.0362714354 bohr
     new conv_thr            =       0.0000008470 Ry

     new unit-cell volume =   9220.70022 a.u.^3 (  1366.36678 Ang^3 )
     density =      0.25506 g/cm^3

CELL_PARAMETERS (alat= 16.84048341)
   0.996661175  -0.000000047   0.000000000
  -0.498330628   0.863134352   0.000000000
   0.000000000   0.000000000   2.244265901

ATOMIC_POSITIONS (angstrom)
Al      -0.039930181   2.540905631   0.000000000
Al       2.220407690   1.274786291   0.000000000
Al       4.480933763   2.541019600   0.000000000
Al      -2.220461604   6.409913088   0.000000000
Al      -0.006284298   5.131611012   0.000000000
Al       2.220621974   6.456093123   0.000000000
Al       4.447180763   5.131646000   0.000000000



     Writing output data file 4al_planar_2x2_vcr.save/
     NEW-OLD atomic charge density approx. for the potential

     negative rho (up, down):  4.181E-07 0.000E+00
     extrapolated charge   20.93814, renormalised to   21.00000

     total cpu time spent up to now is       87.9 secs

     Self-consistent Calculation

     iteration #  1     ecut=    80.00 Ry     beta= 0.40
     Davidson diagonalization with overlap
     ethr =  1.00E-06,  avg # of iterations =  5.0

     negative rho (up, down):  2.202E-07 0.000E+00

     total cpu time spent up to now is       89.5 secs

     total energy              =     -31.67954470 Ry
     Harris-Foulkes estimate   =     -31.95991023 Ry
     estimated scf accuracy    <       0.00050392 Ry

     iteration #  2     ecut=    80.00 Ry     beta= 0.40
     Davidson diagonalization with overlap
     ethr =  2.40E-06,  avg # of iterations =  5.0

     negative rho (up, down):  1.776E-07 0.000E+00

     total cpu time spent up to now is       90.6 secs

     total energy              =     -31.67993330 Ry
     Harris-Foulkes estimate   =     -31.68022265 Ry
     estimated scf accuracy    <       0.00134387 Ry

     iteration #  3     ecut=    80.00 Ry     beta= 0.40
     Davidson diagonalization with overlap
     ethr =  2.40E-06,  avg # of iterations =  2.0

     negative rho (up, down):  1.486E-07 0.000E+00

     total cpu time spent up to now is       91.4 secs

     total energy              =     -31.68000014 Ry
     Harris-Foulkes estimate   =     -31.68001879 Ry
     estimated scf accuracy    <       0.00020177 Ry

     iteration #  4     ecut=    80.00 Ry     beta= 0.40
     Davidson diagonalization with overlap
     ethr =  9.61E-07,  avg # of iterations =  1.0

     negative rho (up, down):  1.448E-08 0.000E+00

     total cpu time spent up to now is       92.3 secs

     total energy              =     -31.67995457 Ry
     Harris-Foulkes estimate   =     -31.68000399 Ry
     estimated scf accuracy    <       0.00012909 Ry

     iteration #  5     ecut=    80.00 Ry     beta= 0.40
     Davidson diagonalization with overlap
     ethr =  6.15E-07,  avg # of iterations =  5.0

     negative rho (up, down):  1.303E-08 0.000E+00

     total cpu time spent up to now is       93.5 secs

     total energy              =     -31.67999346 Ry
     Harris-Foulkes estimate   =     -31.67999460 Ry
     estimated scf accuracy    <       0.00002605 Ry

     iteration #  6     ecut=    80.00 Ry     beta= 0.40
     Davidson diagonalization with overlap
     ethr =  1.24E-07,  avg # of iterations =  1.0

     negative rho (up, down):  1.352E-08 0.000E+00

     total cpu time spent up to now is       94.3 secs

     total energy              =     -31.67999579 Ry
     Harris-Foulkes estimate   =     -31.67999402 Ry
     estimated scf accuracy    <       0.00002376 Ry

     iteration #  7     ecut=    80.00 Ry     beta= 0.40
     Davidson diagonalization with overlap
     ethr =  1.13E-07,  avg # of iterations =  1.0

     total cpu time spent up to now is       95.3 secs

     total energy              =     -31.67998143 Ry
     Harris-Foulkes estimate   =     -31.67999598 Ry
     estimated scf accuracy    <       0.00002768 Ry

     iteration #  8     ecut=    80.00 Ry     beta= 0.40
     Davidson diagonalization with overlap
     ethr =  1.13E-07,  avg # of iterations =  2.0

     total cpu time spent up to now is       96.3 secs

     total energy              =     -31.67998766 Ry
     Harris-Foulkes estimate   =     -31.67998794 Ry
     estimated scf accuracy    <       0.00000202 Ry

     iteration #  9     ecut=    80.00 Ry     beta= 0.40
     Davidson diagonalization with overlap
     ethr =  9.62E-09,  avg # of iterations =  5.0

     total cpu time spent up to now is       97.3 secs

     total energy              =     -31.67998746 Ry
     Harris-Foulkes estimate   =     -31.67998786 Ry
     estimated scf accuracy    <       0.00000143 Ry

     iteration # 10     ecut=    80.00 Ry     beta= 0.40
     Davidson diagonalization with overlap
     ethr =  6.82E-09,  avg # of iterations =  3.0

     total cpu time spent up to now is       98.5 secs

     total energy              =     -31.67998742 Ry
     Harris-Foulkes estimate   =     -31.67998790 Ry
     estimated scf accuracy    <       0.00000113 Ry

     iteration # 11     ecut=    80.00 Ry     beta= 0.40
     Davidson diagonalization with overlap
     ethr =  5.36E-09,  avg # of iterations =  2.0

     total cpu time spent up to now is       99.4 secs

     End of self-consistent calculation

          k = 0.0000 0.0000 0.0000 (111965 PWs)   bands (ev):

    -9.6345  -8.0359  -8.0356  -7.4958  -6.5671  -6.5669  -4.2937  -3.7900
    -3.2216  -2.7584  -2.7584  -2.2082  -2.2080  -1.7082  -0.8863

     the Fermi energy is    -2.6160 ev

!    total energy              =     -31.67998760 Ry
     Harris-Foulkes estimate   =     -31.67998761 Ry
     estimated scf accuracy    <       0.00000001 Ry

     The total energy is the sum of the following terms:

     one-electron contribution =    -104.17854838 Ry
     hartree contribution      =      54.18546055 Ry
     xc contribution           =     -13.75117620 Ry
     ewald contribution        =      32.08044069 Ry
     smearing contrib. (-TS)   =      -0.01616426 Ry

     convergence has been achieved in  11 iterations

     Forces acting on atoms (cartesian axes, Ry/au):

     atom    1 type  1   force =    -0.00608737   -0.00351241    0.00000000
     atom    2 type  1   force =    -0.00000271    0.00302313    0.00000000
     atom    3 type  1   force =     0.00608843   -0.00351853    0.00000000
     atom    4 type  1   force =    -0.00000436    0.00001466    0.00000000
     atom    5 type  1   force =     0.00263234   -0.00152565    0.00000000
     atom    6 type  1   force =    -0.00001164    0.00703635    0.00000000
     atom    7 type  1   force =    -0.00261470   -0.00151755    0.00000000

     Total force =     0.013262     Total SCF correction =     0.000045


     Computing stress (Cartesian axis) and pressure

          total   stress  (Ry/bohr**3)                   (kbar)     P=   -1.75
  -0.00001781  -0.00000002   0.00000000         -2.62     -0.00      0.00
  -0.00000002  -0.00001782   0.00000000         -0.00     -2.62      0.00
   0.00000000   0.00000000   0.00000000          0.00      0.00      0.00


     number of scf cycles    =   5
     number of bfgs steps    =   4

     enthalpy old            =     -31.6786984770 Ry
     enthalpy new            =     -31.6799876022 Ry

     CASE: enthalpy_new < enthalpy_old

     new trust radius        =       0.0543271415 bohr
     new conv_thr            =       0.0000007036 Ry

     new unit-cell volume =   9177.82429 a.u.^3 (  1360.01323 Ang^3 )
     density =      0.25625 g/cm^3

CELL_PARAMETERS (alat= 16.84048341)
   0.994341343  -0.000000698   0.000000000
  -0.497171276   0.861125491   0.000000000
   0.000000000   0.000000000   2.244265901

ATOMIC_POSITIONS (angstrom)
Al      -0.064661252   2.520642485   0.000000000
Al       2.215187593   1.270244631   0.000000000
Al       4.495361817   2.520796233   0.000000000
Al      -2.215301622   6.394959793   0.000000000
Al      -0.007662291   5.120457312   0.000000000
Al       2.215513529   6.469719903   0.000000000
Al       4.438168919   5.120510284   0.000000000



     Writing output data file 4al_planar_2x2_vcr.save/
     NEW-OLD atomic charge density approx. for the potential

     negative rho (up, down):  8.836E-07 0.000E+00
     extrapolated charge   20.90197, renormalised to   21.00000

     total cpu time spent up to now is      110.5 secs

     Self-consistent Calculation

     iteration #  1     ecut=    80.00 Ry     beta= 0.40
     Davidson diagonalization with overlap
     ethr =  1.00E-06,  avg # of iterations =  5.0

     negative rho (up, down):  4.790E-07 0.000E+00

     total cpu time spent up to now is      111.8 secs

     total energy              =     -31.68059287 Ry
     Harris-Foulkes estimate   =     -32.12652764 Ry
     estimated scf accuracy    <       0.00134658 Ry

     iteration #  2     ecut=    80.00 Ry     beta= 0.40
     Davidson diagonalization with overlap
     ethr =  6.41E-06,  avg # of iterations =  5.0

     negative rho (up, down):  3.890E-07 0.000E+00

     total cpu time spent up to now is      113.0 secs

     total energy              =     -31.68157118 Ry
     Harris-Foulkes estimate   =     -31.68236636 Ry
     estimated scf accuracy    <       0.00369126 Ry

     iteration #  3     ecut=    80.00 Ry     beta= 0.40
     Davidson diagonalization with overlap
     ethr =  6.41E-06,  avg # of iterations =  2.0

     negative rho (up, down):  3.246E-07 0.000E+00

     total cpu time spent up to now is      114.0 secs

     total energy              =     -31.68175759 Ry
     Harris-Foulkes estimate   =     -31.68180514 Ry
     estimated scf accuracy    <       0.00050626 Ry

     iteration #  4     ecut=    80.00 Ry     beta= 0.40
     Davidson diagonalization with overlap
     ethr =  2.41E-06,  avg # of iterations =  1.0

     negative rho (up, down):  4.918E-08 0.000E+00

     total cpu time spent up to now is      115.0 secs

     total energy              =     -31.68165650 Ry
     Harris-Foulkes estimate   =     -31.68176819 Ry
     estimated scf accuracy    <       0.00031244 Ry

     iteration #  5     ecut=    80.00 Ry     beta= 0.40
     Davidson diagonalization with overlap
     ethr =  1.49E-06,  avg # of iterations =  5.0

     negative rho (up, down):  4.420E-08 0.000E+00

     total cpu time spent up to now is      116.2 secs

     total energy              =     -31.68173909 Ry
     Harris-Foulkes estimate   =     -31.68174241 Ry
     estimated scf accuracy    <       0.00004017 Ry

     iteration #  6     ecut=    80.00 Ry     beta= 0.40
     Davidson diagonalization with overlap
     ethr =  1.91E-07,  avg # of iterations =  3.0

     negative rho (up, down):  3.427E-08 0.000E+00

     total cpu time spent up to now is      117.2 secs

     total energy              =     -31.68173519 Ry
     Harris-Foulkes estimate   =     -31.68174180 Ry
     estimated scf accuracy    <       0.00003389 Ry

     iteration #  7     ecut=    80.00 Ry     beta= 0.40
     Davidson diagonalization with overlap
     ethr =  1.61E-07,  avg # of iterations =  1.0

     total cpu time spent up to now is      118.2 secs

     total energy              =     -31.68173097 Ry
     Harris-Foulkes estimate   =     -31.68173627 Ry
     estimated scf accuracy    <       0.00001672 Ry

     iteration #  8     ecut=    80.00 Ry     beta= 0.40
     Davidson diagonalization with overlap
     ethr =  7.96E-08,  avg # of iterations =  3.0

     total cpu time spent up to now is      119.4 secs

     total energy              =     -31.68173379 Ry
     Harris-Foulkes estimate   =     -31.68173423 Ry
     estimated scf accuracy    <       0.00000185 Ry

     iteration #  9     ecut=    80.00 Ry     beta= 0.40
     Davidson diagonalization with overlap
     ethr =  8.83E-09,  avg # of iterations =  5.0

     total cpu time spent up to now is      120.7 secs

     total energy              =     -31.68173401 Ry
     Harris-Foulkes estimate   =     -31.68173409 Ry
     estimated scf accuracy    <       0.00000079 Ry

     iteration # 10     ecut=    80.00 Ry     beta= 0.40
     Davidson diagonalization with overlap
     ethr =  3.75E-09,  avg # of iterations =  1.0

     total cpu time spent up to now is      121.6 secs

     End of self-consistent calculation

          k = 0.0000 0.0000 0.0000 (111965 PWs)   bands (ev):

    -9.6328  -8.0147  -8.0142  -7.4839  -6.5755  -6.5752  -4.3678  -3.7876
    -3.1973  -2.7286  -2.7285  -2.1904  -2.1901  -1.6992  -0.8920

     the Fermi energy is    -2.5898 ev

!    total energy              =     -31.68173365 Ry
     Harris-Foulkes estimate   =     -31.68173405 Ry
     estimated scf accuracy    <       0.00000054 Ry

     The total energy is the sum of the following terms:

     one-electron contribution =    -104.47985348 Ry
     hartree contribution      =      54.33870492 Ry
     xc contribution           =     -13.74646528 Ry
     ewald contribution        =      32.22311971 Ry
     smearing contrib. (-TS)   =      -0.01723951 Ry

     convergence has been achieved in  10 iterations

     Forces acting on atoms (cartesian axes, Ry/au):

     atom    1 type  1   force =    -0.00440368   -0.00253746    0.00000000
     atom    2 type  1   force =    -0.00000349    0.00567659    0.00000000
     atom    3 type  1   force =     0.00440753   -0.00254542    0.00000000
     atom    4 type  1   force =    -0.00000419    0.00003603    0.00000000
     atom    5 type  1   force =     0.00494535   -0.00287529    0.00000000
     atom    6 type  1   force =    -0.00002076    0.00510274    0.00000000
     atom    7 type  1   force =    -0.00492075   -0.00285719    0.00000000

     Total force =     0.013233     Total SCF correction =     0.000287


     Computing stress (Cartesian axis) and pressure

          total   stress  (Ry/bohr**3)                   (kbar)     P=   -1.90
  -0.00001945  -0.00000003   0.00000000         -2.86     -0.00      0.00
  -0.00000003  -0.00001948   0.00000000         -0.00     -2.87      0.00
   0.00000000   0.00000000   0.00000019          0.00      0.00      0.03


     number of scf cycles    =   6
     number of bfgs steps    =   5

     enthalpy old            =     -31.6799876022 Ry
     enthalpy new            =     -31.6817336493 Ry

     CASE: enthalpy_new < enthalpy_old

     new trust radius        =       0.0813010767 bohr
     new conv_thr            =       0.0000005677 Ry

     new unit-cell volume =   9110.48589 a.u.^3 (  1350.03471 Ang^3 )
     density =      0.25814 g/cm^3

CELL_PARAMETERS (alat= 16.84048341)
   0.990687182  -0.000002124   0.000000000
  -0.495345431   0.857961029   0.000000000
   0.000000000   0.000000000   2.244265901

ATOMIC_POSITIONS (angstrom)
Al      -0.101521497   2.489935401   0.000000000
Al       2.206964574   1.265059202   0.000000000
Al       4.515993117   2.490149794   0.000000000
Al      -2.207177126   6.371420943   0.000000000
Al      -0.008117751   5.101883337   0.000000000
Al       2.207458378   6.488768496   0.000000000
Al       4.422258687   5.101970389   0.000000000



     Writing output data file 4al_planar_2x2_vcr.save/
     NEW-OLD atomic charge density approx. for the potential

     negative rho (up, down):  2.590E-06 0.000E+00
     extrapolated charge   20.84491, renormalised to   21.00000

     total cpu time spent up to now is      133.8 secs

     Self-consistent Calculation

     iteration #  1     ecut=    80.00 Ry     beta= 0.40
     Davidson diagonalization with overlap
     ethr =  1.00E-06,  avg # of iterations =  7.0

     negative rho (up, down):  1.452E-06 0.000E+00

     total cpu time spent up to now is      135.6 secs

     total energy              =     -31.68143035 Ry
     Harris-Foulkes estimate   =     -32.39091509 Ry
     estimated scf accuracy    <       0.00285390 Ry

     iteration #  2     ecut=    80.00 Ry     beta= 0.40
     Davidson diagonalization with overlap
     ethr =  1.36E-05,  avg # of iterations =  5.0

     negative rho (up, down):  1.197E-06 0.000E+00

     total cpu time spent up to now is      136.8 secs

     total energy              =     -31.68365578 Ry
     Harris-Foulkes estimate   =     -31.68547118 Ry
     estimated scf accuracy    <       0.00874887 Ry

     iteration #  3     ecut=    80.00 Ry     beta= 0.40
     Davidson diagonalization with overlap
     ethr =  1.36E-05,  avg # of iterations =  2.0

     negative rho (up, down):  9.850E-07 0.000E+00

     total cpu time spent up to now is      137.9 secs

     total energy              =     -31.68407095 Ry
     Harris-Foulkes estimate   =     -31.68419626 Ry
     estimated scf accuracy    <       0.00125855 Ry

     iteration #  4     ecut=    80.00 Ry     beta= 0.40
     Davidson diagonalization with overlap
     ethr =  5.99E-06,  avg # of iterations =  1.0

     negative rho (up, down):  1.684E-07 0.000E+00

     total cpu time spent up to now is      138.9 secs

     total energy              =     -31.68383957 Ry
     Harris-Foulkes estimate   =     -31.68409467 Ry
     estimated scf accuracy    <       0.00073873 Ry

     iteration #  5     ecut=    80.00 Ry     beta= 0.40
     Davidson diagonalization with overlap
     ethr =  3.52E-06,  avg # of iterations =  5.0

     negative rho (up, down):  1.518E-07 0.000E+00

     total cpu time spent up to now is      140.3 secs

     total energy              =     -31.68401858 Ry
     Harris-Foulkes estimate   =     -31.68402573 Ry
     estimated scf accuracy    <       0.00009071 Ry

     iteration #  6     ecut=    80.00 Ry     beta= 0.40
     Davidson diagonalization with overlap
     ethr =  4.32E-07,  avg # of iterations =  3.0

     negative rho (up, down):  1.330E-07 0.000E+00

     total cpu time spent up to now is      141.4 secs

     total energy              =     -31.68401566 Ry
     Harris-Foulkes estimate   =     -31.68402562 Ry
     estimated scf accuracy    <       0.00007709 Ry

     iteration #  7     ecut=    80.00 Ry     beta= 0.40
     Davidson diagonalization with overlap
     ethr =  3.67E-07,  avg # of iterations =  1.0

     total cpu time spent up to now is      142.3 secs

     total energy              =     -31.68399692 Ry
     Harris-Foulkes estimate   =     -31.68401673 Ry
     estimated scf accuracy    <       0.00005309 Ry

     iteration #  8     ecut=    80.00 Ry     beta= 0.40
     Davidson diagonalization with overlap
     ethr =  2.53E-07,  avg # of iterations =  3.0

     total cpu time spent up to now is      143.5 secs

     total energy              =     -31.68400619 Ry
     Harris-Foulkes estimate   =     -31.68400735 Ry
     estimated scf accuracy    <       0.00000511 Ry

     iteration #  9     ecut=    80.00 Ry     beta= 0.40
     Davidson diagonalization with overlap
     ethr =  2.44E-08,  avg # of iterations =  5.0

     total cpu time spent up to now is      144.7 secs

     total energy              =     -31.68400636 Ry
     Harris-Foulkes estimate   =     -31.68400702 Ry
     estimated scf accuracy    <       0.00000223 Ry

     iteration # 10     ecut=    80.00 Ry     beta= 0.40
     Davidson diagonalization with overlap
     ethr =  1.06E-08,  avg # of iterations =  2.0

     total cpu time spent up to now is      145.8 secs

     total energy              =     -31.68400645 Ry
     Harris-Foulkes estimate   =     -31.68400652 Ry
     estimated scf accuracy    <       0.00000065 Ry

     iteration # 11     ecut=    80.00 Ry     beta= 0.40
     Davidson diagonalization with overlap
     ethr =  3.12E-09,  avg # of iterations =  5.0

     total cpu time spent up to now is      147.3 secs

     total energy              =     -31.68400641 Ry
     Harris-Foulkes estimate   =     -31.68400675 Ry
     estimated scf accuracy    <       0.00000111 Ry

     iteration # 12     ecut=    80.00 Ry     beta= 0.40
     Davidson diagonalization with overlap
     ethr =  3.12E-09,  avg # of iterations =  2.0

     total cpu time spent up to now is      148.3 secs

     End of self-consistent calculation

          k = 0.0000 0.0000 0.0000 (111965 PWs)   bands (ev):

    -9.6295  -7.9809  -7.9801  -7.4645  -6.5844  -6.5837  -4.4804  -3.7837
    -3.1553  -2.6797  -2.6795  -2.1619  -2.1613  -1.6856  -0.8971

     the Fermi energy is    -2.5475 ev

!    total energy              =     -31.68400631 Ry
     Harris-Foulkes estimate   =     -31.68400648 Ry
     estimated scf accuracy    <       0.00000021 Ry

     The total energy is the sum of the following terms:

     one-electron contribution =    -104.97872400 Ry
     hartree contribution      =      54.58864221 Ry
     xc contribution           =     -13.73938371 Ry
     ewald contribution        =      32.46441626 Ry
     smearing contrib. (-TS)   =      -0.01895707 Ry

     convergence has been achieved in  12 iterations

     Forces acting on atoms (cartesian axes, Ry/au):

     atom    1 type  1   force =    -0.00203729   -0.00115857    0.00000000
     atom    2 type  1   force =     0.00001672    0.00925555    0.00000000
     atom    3 type  1   force =     0.00201419   -0.00118312    0.00000000
     atom    4 type  1   force =    -0.00000175    0.00003077    0.00000000
     atom    5 type  1   force =     0.00805591   -0.00464897    0.00000000
     atom    6 type  1   force =    -0.00003468    0.00234783    0.00000000
     atom    7 type  1   force =    -0.00801311   -0.00464350    0.00000000

     Total force =     0.016565     Total SCF correction =     0.000309


     Computing stress (Cartesian axis) and pressure

          total   stress  (Ry/bohr**3)                   (kbar)     P=   -2.14
  -0.00002180  -0.00000005   0.00000000         -3.21     -0.01      0.00
  -0.00000005  -0.00002183   0.00000000         -0.01     -3.21      0.00
   0.00000000   0.00000000   0.00000003          0.00      0.00      0.00


     number of scf cycles    =   7
     number of bfgs steps    =   6

     enthalpy old            =     -31.6817336493 Ry
     enthalpy new            =     -31.6840063069 Ry

     CASE: enthalpy_new < enthalpy_old

     new trust radius        =       0.1215035793 bohr
     new conv_thr            =       0.0000009256 Ry

     new unit-cell volume =   9004.68335 a.u.^3 (  1334.35639 Ang^3 )
     density =      0.26118 g/cm^3

CELL_PARAMETERS (alat= 16.84048341)
   0.984918447  -0.000005067   0.000000000
  -0.492463612   0.852965551   0.000000000
   0.000000000   0.000000000   2.244265901

ATOMIC_POSITIONS (angstrom)
Al      -0.156269790   2.443457125   0.000000000
Al       2.194002009   1.259763570   0.000000000
Al       4.545093153   2.443750340   0.000000000
Al      -2.194354870   6.334255779   0.000000000
Al      -0.006327076   5.071129533   0.000000000
Al       2.194726473   6.514840363   0.000000000
Al       4.394639649   5.071254714   0.000000000



     Writing output data file 4al_planar_2x2_vcr.save/
     NEW-OLD atomic charge density approx. for the potential

     negative rho (up, down):  7.076E-06 0.000E+00
     extrapolated charge   20.75346, renormalised to   21.00000

     total cpu time spent up to now is      160.6 secs

     Self-consistent Calculation

     iteration #  1     ecut=    80.00 Ry     beta= 0.40
     Davidson diagonalization with overlap
     ethr =  1.00E-06,  avg # of iterations =  8.0

     negative rho (up, down):  4.118E-06 0.000E+00

     total cpu time spent up to now is      162.7 secs

     total energy              =     -31.68046620 Ry
     Harris-Foulkes estimate   =     -32.81915851 Ry
     estimated scf accuracy    <       0.00698217 Ry

     iteration #  2     ecut=    80.00 Ry     beta= 0.40
     Davidson diagonalization with overlap
     ethr =  3.32E-05,  avg # of iterations =  5.0

     negative rho (up, down):  3.423E-06 0.000E+00

     total cpu time spent up to now is      163.9 secs

     total energy              =     -31.68585537 Ry
     Harris-Foulkes estimate   =     -31.69056449 Ry
     estimated scf accuracy    <       0.02315322 Ry

     iteration #  3     ecut=    80.00 Ry     beta= 0.40
     Davidson diagonalization with overlap
     ethr =  3.32E-05,  avg # of iterations =  2.0

     negative rho (up, down):  2.803E-06 0.000E+00

     total cpu time spent up to now is      164.9 secs

     total energy              =     -31.68688812 Ry
     Harris-Foulkes estimate   =     -31.68722504 Ry
     estimated scf accuracy    <       0.00328687 Ry

     iteration #  4     ecut=    80.00 Ry     beta= 0.40
     Davidson diagonalization with overlap
     ethr =  1.57E-05,  avg # of iterations =  1.0

     negative rho (up, down):  6.412E-07 0.000E+00

     total cpu time spent up to now is      165.8 secs

     total energy              =     -31.68636930 Ry
     Harris-Foulkes estimate   =     -31.68696025 Ry
     estimated scf accuracy    <       0.00184126 Ry

     iteration #  5     ecut=    80.00 Ry     beta= 0.40
     Davidson diagonalization with overlap
     ethr =  8.77E-06,  avg # of iterations =  4.0

     negative rho (up, down):  6.075E-07 0.000E+00

     total cpu time spent up to now is      167.1 secs

     total energy              =     -31.68679647 Ry
     Harris-Foulkes estimate   =     -31.68680386 Ry
     estimated scf accuracy    <       0.00013706 Ry

     iteration #  6     ecut=    80.00 Ry     beta= 0.40
     Davidson diagonalization with overlap
     ethr =  6.53E-07,  avg # of iterations =  3.0

     negative rho (up, down):  6.138E-07 0.000E+00

     total cpu time spent up to now is      168.3 secs

     total energy              =     -31.68682190 Ry
     Harris-Foulkes estimate   =     -31.68682975 Ry
     estimated scf accuracy    <       0.00016186 Ry

     iteration #  7     ecut=    80.00 Ry     beta= 0.40
     Davidson diagonalization with overlap
     ethr =  6.53E-07,  avg # of iterations =  1.0

     negative rho (up, down):  1.647E-07 0.000E+00

     total cpu time spent up to now is      169.2 secs

     total energy              =     -31.68674589 Ry
     Harris-Foulkes estimate   =     -31.68682326 Ry
     estimated scf accuracy    <       0.00014100 Ry

     iteration #  8     ecut=    80.00 Ry     beta= 0.40
     Davidson diagonalization with overlap
     ethr =  6.53E-07,  avg # of iterations =  5.0

     negative rho (up, down):  1.657E-08 0.000E+00

     total cpu time spent up to now is      170.4 secs

     total energy              =     -31.68680261 Ry
     Harris-Foulkes estimate   =     -31.68680336 Ry
     estimated scf accuracy    <       0.00006848 Ry

     iteration #  9     ecut=    80.00 Ry     beta= 0.40
     Davidson diagonalization with overlap
     ethr =  3.26E-07,  avg # of iterations =  1.0

     negative rho (up, down):  2.449E-08 0.000E+00

     total cpu time spent up to now is      171.4 secs

     total energy              =     -31.68678801 Ry
     Harris-Foulkes estimate   =     -31.68680380 Ry
     estimated scf accuracy    <       0.00005894 Ry

     iteration # 10     ecut=    80.00 Ry     beta= 0.40
     Davidson diagonalization with overlap
     ethr =  2.81E-07,  avg # of iterations =  2.0

     negative rho (up, down):  2.309E-08 0.000E+00

     total cpu time spent up to now is      172.3 secs

     total energy              =     -31.68678847 Ry
     Harris-Foulkes estimate   =     -31.68679183 Ry
     estimated scf accuracy    <       0.00001052 Ry

     iteration # 11     ecut=    80.00 Ry     beta= 0.40
     Davidson diagonalization with overlap
     ethr =  5.01E-08,  avg # of iterations =  4.0

     total cpu time spent up to now is      173.5 secs

     total energy              =     -31.68678972 Ry
     Harris-Foulkes estimate   =     -31.68679572 Ry
     estimated scf accuracy    <       0.00001163 Ry

     iteration # 12     ecut=    80.00 Ry     beta= 0.40
     Davidson diagonalization with overlap
     ethr =  5.01E-08,  avg # of iterations =  4.0

     total cpu time spent up to now is      174.6 secs

     total energy              =     -31.68679409 Ry
     Harris-Foulkes estimate   =     -31.68679288 Ry
     estimated scf accuracy    <       0.00000184 Ry

     iteration # 13     ecut=    80.00 Ry     beta= 0.40
     Davidson diagonalization with overlap
     ethr =  8.75E-09,  avg # of iterations =  5.0

     total cpu time spent up to now is      175.8 secs

     total energy              =     -31.68679355 Ry
     Harris-Foulkes estimate   =     -31.68679494 Ry
     estimated scf accuracy    <       0.00001083 Ry

     iteration # 14     ecut=    80.00 Ry     beta= 0.40
     Davidson diagonalization with overlap
     ethr =  8.75E-09,  avg # of iterations =  2.0

     total cpu time spent up to now is      176.9 secs

     total energy              =     -31.68679234 Ry
     Harris-Foulkes estimate   =     -31.68679374 Ry
     estimated scf accuracy    <       0.00000494 Ry

     iteration # 15     ecut=    80.00 Ry     beta= 0.40
     Davidson diagonalization with overlap
     ethr =  8.75E-09,  avg # of iterations =  4.0

     total cpu time spent up to now is      178.1 secs

     End of self-consistent calculation

          k = 0.0000 0.0000 0.0000 (111965 PWs)   bands (ev):

    -9.6316  -7.9331  -7.9320  -7.4436  -6.5987  -6.5977  -4.6585  -3.7828
    -3.0886  -2.6094  -2.6091  -2.1200  -2.1192  -1.6723  -0.9036

     the Fermi energy is    -2.4864 ev

!    total energy              =     -31.68679300 Ry
     Harris-Foulkes estimate   =     -31.68679301 Ry
     estimated scf accuracy    <       0.00000006 Ry

     The total energy is the sum of the following terms:

     one-electron contribution =    -105.82589014 Ry
     hartree contribution      =      55.01433431 Ry
     xc contribution           =     -13.73120670 Ry
     ewald contribution        =      32.87742294 Ry
     smearing contrib. (-TS)   =      -0.02145340 Ry

     convergence has been achieved in  15 iterations

     Forces acting on atoms (cartesian axes, Ry/au):

     atom    1 type  1   force =     0.00125408    0.00074441    0.00000000
     atom    2 type  1   force =     0.00000994    0.01369662    0.00000000
     atom    3 type  1   force =    -0.00127706    0.00072081    0.00000000
     atom    4 type  1   force =     0.00000075    0.00005039    0.00000000
     atom    5 type  1   force =     0.01191868   -0.00688653    0.00000000
     atom    6 type  1   force =    -0.00003711   -0.00145394    0.00000000
     atom    7 type  1   force =    -0.01186929   -0.00687176    0.00000000

     Total force =     0.023908     Total SCF correction =     0.000182


     Computing stress (Cartesian axis) and pressure

          total   stress  (Ry/bohr**3)                   (kbar)     P=   -2.47
  -0.00002515  -0.00000008   0.00000000         -3.70     -0.01      0.00
  -0.00000008  -0.00002521   0.00000000         -0.01     -3.71      0.00
   0.00000000   0.00000000   0.00000002          0.00      0.00      0.00


     number of scf cycles    =   8
     number of bfgs steps    =   7

     enthalpy old            =     -31.6840063069 Ry
     enthalpy new            =     -31.6867930035 Ry

     CASE: enthalpy_new < enthalpy_old

     new trust radius        =       0.1811945155 bohr
     new conv_thr            =       0.0000010000 Ry

     new unit-cell volume =   8837.66615 a.u.^3 (  1309.60699 Ang^3 )
     density =      0.26611 g/cm^3

CELL_PARAMETERS (alat= 16.84048341)
   0.975743183  -0.000010870   0.000000000
  -0.487881006   0.845019804   0.000000000
   0.000000000   0.000000000   2.244265901

ATOMIC_POSITIONS (angstrom)
Al      -0.237055254   2.373168336   0.000000000
Al       2.173383190   1.255693368   0.000000000
Al       4.585074761   2.373580267   0.000000000
Al      -2.173967465   6.275158729   0.000000000
Al       0.000304550   5.020018289   0.000000000
Al       2.174464563   6.549025534   0.000000000
Al       4.346924174   5.020204385   0.000000000



     Writing output data file 4al_planar_2x2_vcr.save/
     NEW-OLD atomic charge density approx. for the potential

     negative rho (up, down):  1.302E-05 0.000E+00
     extrapolated charge   20.60346, renormalised to   21.00000

     total cpu time spent up to now is      189.2 secs

     Self-consistent Calculation

     iteration #  1     ecut=    80.00 Ry     beta= 0.40
     Davidson diagonalization with overlap
     ethr =  1.00E-06,  avg # of iterations =  9.0

     negative rho (up, down):  7.793E-06 0.000E+00

     total cpu time spent up to now is      191.2 secs

     total energy              =     -31.67460648 Ry
     Harris-Foulkes estimate   =     -33.53511923 Ry
     estimated scf accuracy    <       0.01648050 Ry

     iteration #  2     ecut=    80.00 Ry     beta= 0.40
     Davidson diagonalization with overlap
     ethr =  7.85E-05,  avg # of iterations =  5.0

     negative rho (up, down):  6.504E-06 0.000E+00

     total cpu time spent up to now is      192.5 secs

     total energy              =     -31.68755382 Ry
     Harris-Foulkes estimate   =     -31.69918566 Ry
     estimated scf accuracy    <       0.05845700 Ry

     iteration #  3     ecut=    80.00 Ry     beta= 0.40
     Davidson diagonalization with overlap
     ethr =  7.85E-05,  avg # of iterations =  2.0

     negative rho (up, down):  5.291E-06 0.000E+00

     total cpu time spent up to now is      193.4 secs

     total energy              =     -31.69007862 Ry
     Harris-Foulkes estimate   =     -31.69094793 Ry
     estimated scf accuracy    <       0.00830447 Ry

     iteration #  4     ecut=    80.00 Ry     beta= 0.40
     Davidson diagonalization with overlap
     ethr =  3.95E-05,  avg # of iterations =  1.0

     negative rho (up, down):  1.481E-06 0.000E+00

     total cpu time spent up to now is      194.3 secs

     total energy              =     -31.68890276 Ry
     Harris-Foulkes estimate   =     -31.69026899 Ry
     estimated scf accuracy    <       0.00454709 Ry

     iteration #  5     ecut=    80.00 Ry     beta= 0.40
     Davidson diagonalization with overlap
     ethr =  2.17E-05,  avg # of iterations =  4.0

     negative rho (up, down):  1.413E-06 0.000E+00

     total cpu time spent up to now is      195.4 secs

     total energy              =     -31.68991695 Ry
     Harris-Foulkes estimate   =     -31.68993798 Ry
     estimated scf accuracy    <       0.00032347 Ry

     iteration #  6     ecut=    80.00 Ry     beta= 0.40
     Davidson diagonalization with overlap
     ethr =  1.54E-06,  avg # of iterations =  3.0

     negative rho (up, down):  1.430E-06 0.000E+00

     total cpu time spent up to now is      196.5 secs

     total energy              =     -31.68994899 Ry
     Harris-Foulkes estimate   =     -31.68999073 Ry
     estimated scf accuracy    <       0.00035491 Ry

     iteration #  7     ecut=    80.00 Ry     beta= 0.40
     Davidson diagonalization with overlap
     ethr =  1.54E-06,  avg # of iterations =  1.0

     negative rho (up, down):  4.908E-08 0.000E+00

     total cpu time spent up to now is      197.5 secs

     total energy              =     -31.68980351 Ry
     Harris-Foulkes estimate   =     -31.68995672 Ry
     estimated scf accuracy    <       0.00024583 Ry

     iteration #  8     ecut=    80.00 Ry     beta= 0.40
     Davidson diagonalization with overlap
     ethr =  1.17E-06,  avg # of iterations =  5.0

     negative rho (up, down):  4.052E-08 0.000E+00

     total cpu time spent up to now is      198.9 secs

     total energy              =     -31.68989264 Ry
     Harris-Foulkes estimate   =     -31.69003627 Ry
     estimated scf accuracy    <       0.00060272 Ry

     iteration #  9     ecut=    80.00 Ry     beta= 0.40
     Davidson diagonalization with overlap
     ethr =  1.17E-06,  avg # of iterations =  2.0

     negative rho (up, down):  3.432E-08 0.000E+00

     total cpu time spent up to now is      200.0 secs

     total energy              =     -31.68989233 Ry
     Harris-Foulkes estimate   =     -31.68992810 Ry
     estimated scf accuracy    <       0.00010817 Ry

     iteration # 10     ecut=    80.00 Ry     beta= 0.40
     Davidson diagonalization with overlap
     ethr =  5.15E-07,  avg # of iterations =  4.0

     negative rho (up, down):  2.711E-08 0.000E+00

     total cpu time spent up to now is      201.4 secs

     total energy              =     -31.68991760 Ry
     Harris-Foulkes estimate   =     -31.68991836 Ry
     estimated scf accuracy    <       0.00001336 Ry

     iteration # 11     ecut=    80.00 Ry     beta= 0.40
     Davidson diagonalization with overlap
     ethr =  6.36E-08,  avg # of iterations =  2.0

     total cpu time spent up to now is      202.5 secs

     total energy              =     -31.68991591 Ry
     Harris-Foulkes estimate   =     -31.68991869 Ry
     estimated scf accuracy    <       0.00000729 Ry

     iteration # 12     ecut=    80.00 Ry     beta= 0.40
     Davidson diagonalization with overlap
     ethr =  3.47E-08,  avg # of iterations =  3.0

     total cpu time spent up to now is      203.6 secs

     End of self-consistent calculation

          k = 0.0000 0.0000 0.0000 (111965 PWs)   bands (ev):

    -9.6436  -7.8614  -7.8599  -7.4275  -6.6163  -6.6149  -4.9337  -3.7884
    -2.9728  -2.5064  -2.5059  -2.0550  -2.0539  -1.6653  -0.9070

     the Fermi energy is    -2.3961 ev

!    total energy              =     -31.68991684 Ry
     Harris-Foulkes estimate   =     -31.68991698 Ry
     estimated scf accuracy    <       0.00000082 Ry

     The total energy is the sum of the following terms:

     one-electron contribution =    -107.29793577 Ry
     hartree contribution      =      55.75449052 Ry
     xc contribution           =     -13.72353835 Ry
     ewald contribution        =      33.60256686 Ry
     smearing contrib. (-TS)   =      -0.02550010 Ry

     convergence has been achieved in  12 iterations

     Forces acting on atoms (cartesian axes, Ry/au):

     atom    1 type  1   force =     0.00578002    0.00336611    0.00000000
     atom    2 type  1   force =    -0.00003358    0.01907260    0.00000000
     atom    3 type  1   force =    -0.00578204    0.00335264    0.00000000
     atom    4 type  1   force =     0.00002612    0.00007112    0.00000000
     atom    5 type  1   force =     0.01657618   -0.00962251    0.00000000
     atom    6 type  1   force =    -0.00002001   -0.00667495    0.00000000
     atom    7 type  1   force =    -0.01654670   -0.00956502    0.00000000

     Total force =     0.035077     Total SCF correction =     0.000463


     Computing stress (Cartesian axis) and pressure

          total   stress  (Ry/bohr**3)                   (kbar)     P=   -2.93
  -0.00002984  -0.00000011   0.00000000         -4.39     -0.02      0.00
  -0.00000011  -0.00002992   0.00000000         -0.02     -4.40      0.00
   0.00000000   0.00000000  -0.00000005          0.00      0.00     -0.01


     number of scf cycles    =   9
     number of bfgs steps    =   8

     enthalpy old            =     -31.6867930035 Ry
     enthalpy new            =     -31.6899168417 Ry

     CASE: enthalpy_new < enthalpy_old

     new trust radius        =       0.2659884038 bohr
     new conv_thr            =       0.0000010000 Ry

     new unit-cell volume =   8589.43565 a.u.^3 (  1272.82303 Ang^3 )
     density =      0.27380 g/cm^3

CELL_PARAMETERS (alat= 16.84048341)
   0.961945338  -0.000021836   0.000000000
  -0.480991579   0.833070884   0.000000000
   0.000000000   0.000000000   2.244265901

ATOMIC_POSITIONS (angstrom)
Al      -0.346231931   2.274587936   0.000000000
Al       2.142337574   1.256859397   0.000000000
Al       4.632893208   2.275171059   0.000000000
Al      -2.143297654   6.186314451   0.000000000
Al       0.016591110   4.939451291   0.000000000
Al       2.143989858   6.586200916   0.000000000
Al       4.268818603   4.939761232   0.000000000



     Writing output data file 4al_planar_2x2_vcr.save/
     NEW-OLD atomic charge density approx. for the potential

     negative rho (up, down):  1.769E-05 0.000E+00
     extrapolated charge   20.39361, renormalised to   21.00000

     total cpu time spent up to now is      214.8 secs

     Self-consistent Calculation

     iteration #  1     ecut=    80.00 Ry     beta= 0.40
     Davidson diagonalization with overlap
     ethr =  1.00E-06,  avg # of iterations = 11.0

     negative rho (up, down):  1.082E-05 0.000E+00

     total cpu time spent up to now is      217.1 secs

     total energy              =     -31.66130049 Ry
     Harris-Foulkes estimate   =     -34.57679324 Ry
     estimated scf accuracy    <       0.03296298 Ry

     iteration #  2     ecut=    80.00 Ry     beta= 0.40
     Davidson diagonalization with overlap
     ethr =  1.57E-04,  avg # of iterations =  4.0

     negative rho (up, down):  9.116E-06 0.000E+00

     total cpu time spent up to now is      218.3 secs

     total energy              =     -31.68905345 Ry
     Harris-Foulkes estimate   =     -31.71136001 Ry
     estimated scf accuracy    <       0.11165420 Ry

     iteration #  3     ecut=    80.00 Ry     beta= 0.40
     Davidson diagonalization with overlap
     ethr =  1.57E-04,  avg # of iterations =  2.0

     negative rho (up, down):  7.446E-06 0.000E+00

     total cpu time spent up to now is      219.2 secs

     total energy              =     -31.69369409 Ry
     Harris-Foulkes estimate   =     -31.69546093 Ry
     estimated scf accuracy    <       0.01723442 Ry

     iteration #  4     ecut=    80.00 Ry     beta= 0.40
     Davidson diagonalization with overlap
     ethr =  8.21E-05,  avg # of iterations =  1.0

     negative rho (up, down):  2.999E-06 0.000E+00

     total cpu time spent up to now is      220.1 secs

     total energy              =     -31.69157284 Ry
     Harris-Foulkes estimate   =     -31.69408723 Ry
     estimated scf accuracy    <       0.00975165 Ry

     iteration #  5     ecut=    80.00 Ry     beta= 0.40
     Davidson diagonalization with overlap
     ethr =  4.64E-05,  avg # of iterations =  4.0

     negative rho (up, down):  2.490E-06 0.000E+00

     total cpu time spent up to now is      221.1 secs

     total energy              =     -31.69314840 Ry
     Harris-Foulkes estimate   =     -31.69324927 Ry
     estimated scf accuracy    <       0.00062890 Ry

     iteration #  6     ecut=    80.00 Ry     beta= 0.40
     Davidson diagonalization with overlap
     ethr =  2.99E-06,  avg # of iterations =  4.0

     negative rho (up, down):  1.285E-06 0.000E+00

     total cpu time spent up to now is      222.2 secs

     total energy              =     -31.69320479 Ry
     Harris-Foulkes estimate   =     -31.69328937 Ry
     estimated scf accuracy    <       0.00029440 Ry

     iteration #  7     ecut=    80.00 Ry     beta= 0.40
     Davidson diagonalization with overlap
     ethr =  1.40E-06,  avg # of iterations =  5.0

     negative rho (up, down):  1.789E-07 0.000E+00

     total cpu time spent up to now is      223.3 secs

     total energy              =     -31.69310558 Ry
     Harris-Foulkes estimate   =     -31.69334927 Ry
     estimated scf accuracy    <       0.00058856 Ry

     iteration #  8     ecut=    80.00 Ry     beta= 0.40
     Davidson diagonalization with overlap
     ethr =  1.40E-06,  avg # of iterations =  5.0

     negative rho (up, down):  5.682E-08 0.000E+00

     total cpu time spent up to now is      224.5 secs

     total energy              =     -31.69327108 Ry
     Harris-Foulkes estimate   =     -31.69329008 Ry
     estimated scf accuracy    <       0.00017526 Ry

     iteration #  9     ecut=    80.00 Ry     beta= 0.40
     Davidson diagonalization with overlap
     ethr =  8.35E-07,  avg # of iterations =  1.0

     negative rho (up, down):  1.881E-08 0.000E+00

     total cpu time spent up to now is      225.4 secs

     total energy              =     -31.69323164 Ry
     Harris-Foulkes estimate   =     -31.69327424 Ry
     estimated scf accuracy    <       0.00011245 Ry

     iteration # 10     ecut=    80.00 Ry     beta= 0.40
     Davidson diagonalization with overlap
     ethr =  5.35E-07,  avg # of iterations =  5.0

     total cpu time spent up to now is      226.3 secs

     total energy              =     -31.69325353 Ry
     Harris-Foulkes estimate   =     -31.69325505 Ry
     estimated scf accuracy    <       0.00000567 Ry

     iteration # 11     ecut=    80.00 Ry     beta= 0.40
     Davidson diagonalization with overlap
     ethr =  2.70E-08,  avg # of iterations =  3.0

     total cpu time spent up to now is      227.4 secs

     total energy              =     -31.69325462 Ry
     Harris-Foulkes estimate   =     -31.69325496 Ry
     estimated scf accuracy    <       0.00000116 Ry

     iteration # 12     ecut=    80.00 Ry     beta= 0.40
     Davidson diagonalization with overlap
     ethr =  5.53E-09,  avg # of iterations =  5.0

     total cpu time spent up to now is      228.3 secs

     End of self-consistent calculation

          k = 0.0000 0.0000 0.0000 (111965 PWs)   bands (ev):

    -9.6886  -7.7709  -7.7686  -7.4594  -6.6442  -6.6422  -5.3310  -3.8173
    -2.7897  -2.3810  -2.3803  -1.9666  -1.9651  -1.6917  -0.9054

     the Fermi energy is    -2.2836 ev

!    total energy              =     -31.69325462 Ry
     Harris-Foulkes estimate   =     -31.69325499 Ry
     estimated scf accuracy    <       0.00000046 Ry

     The total energy is the sum of the following terms:

     one-electron contribution =    -109.77111420 Ry
     hartree contribution      =      56.99739276 Ry
     xc contribution           =     -13.72321457 Ry
     ewald contribution        =      34.83623431 Ry
     smearing contrib. (-TS)   =      -0.03255292 Ry

     convergence has been achieved in  12 iterations

     Forces acting on atoms (cartesian axes, Ry/au):

     atom    1 type  1   force =     0.01069533    0.00615530    0.00000000
     atom    2 type  1   force =    -0.00008352    0.02362906    0.00000000
     atom    3 type  1   force =    -0.01066801    0.00626913    0.00000000
     atom    4 type  1   force =    -0.00000846    0.00007357    0.00000000
     atom    5 type  1   force =     0.02050602   -0.01193568    0.00000000
     atom    6 type  1   force =     0.00009584   -0.01233374    0.00000000
     atom    7 type  1   force =    -0.02053720   -0.01185764    0.00000000

     Total force =     0.046273     Total SCF correction =     0.000378


     Computing stress (Cartesian axis) and pressure

          total   stress  (Ry/bohr**3)                   (kbar)     P=   -3.49
  -0.00003552  -0.00000020   0.00000000         -5.23     -0.03      0.00
  -0.00000020  -0.00003562   0.00000000         -0.03     -5.24      0.00
   0.00000000   0.00000000   0.00000005          0.00      0.00      0.01


     number of scf cycles    =  10
     number of bfgs steps    =   9

     enthalpy old            =     -31.6899168417 Ry
     enthalpy new            =     -31.6932546197 Ry

     CASE: enthalpy_new < enthalpy_old

     new trust radius        =       0.3327461858 bohr
     new conv_thr            =       0.0000010000 Ry

     new unit-cell volume =   8283.90038 a.u.^3 (  1227.54737 Ang^3 )
     density =      0.28390 g/cm^3

CELL_PARAMETERS (alat= 16.84048341)
   0.944686459  -0.000040876   0.000000000
  -0.472378629   0.818125737   0.000000000
   0.000000000   0.000000000   2.244265901

ATOMIC_POSITIONS (angstrom)
Al      -0.465266037   2.161370047   0.000000000
Al       2.103451090   1.266643178   0.000000000
Al       4.675176042   2.162246989   0.000000000
Al      -2.104993393   6.075207302   0.000000000
Al       0.044155657   4.834442547   0.000000000
Al       2.105931610   6.612435475   0.000000000
Al       4.163824418   4.834914567   0.000000000



     Writing output data file 4al_planar_2x2_vcr.save/
     NEW-OLD atomic charge density approx. for the potential

     negative rho (up, down):  1.553E-05 0.000E+00
     extrapolated charge   20.22609, renormalised to   21.00000

     total cpu time spent up to now is      239.4 secs

     Self-consistent Calculation

     iteration #  1     ecut=    80.00 Ry     beta= 0.40
     Davidson diagonalization with overlap
     ethr =  1.00E-06,  avg # of iterations = 12.0

     negative rho (up, down):  9.627E-06 0.000E+00

     total cpu time spent up to now is      241.6 secs

     total energy              =     -31.65219846 Ry
     Harris-Foulkes estimate   =     -35.49490599 Ry
     estimated scf accuracy    <       0.04419918 Ry

     iteration #  2     ecut=    80.00 Ry     beta= 0.40
     Davidson diagonalization with overlap
     ethr =  2.10E-04,  avg # of iterations =  4.0

     negative rho (up, down):  7.976E-06 0.000E+00

     total cpu time spent up to now is      242.7 secs

     total energy              =     -31.69465035 Ry
     Harris-Foulkes estimate   =     -31.71836194 Ry
     estimated scf accuracy    <       0.11471977 Ry

     iteration #  3     ecut=    80.00 Ry     beta= 0.40
     Davidson diagonalization with overlap
     ethr =  2.10E-04,  avg # of iterations =  2.0

     negative rho (up, down):  6.427E-06 0.000E+00

     total cpu time spent up to now is      243.6 secs

     total energy              =     -31.69922796 Ry
     Harris-Foulkes estimate   =     -31.70133493 Ry
     estimated scf accuracy    <       0.02060020 Ry

     iteration #  4     ecut=    80.00 Ry     beta= 0.40
     Davidson diagonalization with overlap
     ethr =  9.81E-05,  avg # of iterations =  1.0

     negative rho (up, down):  2.054E-06 0.000E+00

     total cpu time spent up to now is      244.5 secs

     total energy              =     -31.69588988 Ry
     Harris-Foulkes estimate   =     -31.69961380 Ry
     estimated scf accuracy    <       0.01252338 Ry

     iteration #  5     ecut=    80.00 Ry     beta= 0.40
     Davidson diagonalization with overlap
     ethr =  5.96E-05,  avg # of iterations =  4.0

     negative rho (up, down):  1.828E-06 0.000E+00

     total cpu time spent up to now is      245.5 secs

     total energy              =     -31.69782787 Ry
     Harris-Foulkes estimate   =     -31.69791901 Ry
     estimated scf accuracy    <       0.00047194 Ry

     iteration #  6     ecut=    80.00 Ry     beta= 0.40
     Davidson diagonalization with overlap
     ethr =  2.25E-06,  avg # of iterations =  5.0

     negative rho (up, down):  5.455E-07 0.000E+00

     total cpu time spent up to now is      246.7 secs

     total energy              =     -31.69792884 Ry
     Harris-Foulkes estimate   =     -31.69798473 Ry
     estimated scf accuracy    <       0.00025873 Ry

     iteration #  7     ecut=    80.00 Ry     beta= 0.40
     Davidson diagonalization with overlap
     ethr =  1.23E-06,  avg # of iterations =  5.0

     negative rho (up, down):  1.560E-07 0.000E+00

     total cpu time spent up to now is      247.8 secs

     total energy              =     -31.69787734 Ry
     Harris-Foulkes estimate   =     -31.69800180 Ry
     estimated scf accuracy    <       0.00029463 Ry

     iteration #  8     ecut=    80.00 Ry     beta= 0.40
     Davidson diagonalization with overlap
[...]
Al      -3.019848867   3.803731417   0.000000000
Al      -0.521814243   3.809378518   0.000000000
Al       1.914721798   3.702564878   0.000000000
Al       4.412771992   3.708197307   0.000000000



     Writing output data file 4al_planar_2x2_vcr.save/
     NEW-OLD atomic charge density approx. for the potential

     negative rho (up, down):  9.107E-08 0.000E+00

     total cpu time spent up to now is     2451.8 secs

     Self-consistent Calculation

     iteration #  1     ecut=    80.00 Ry     beta= 0.40
     Davidson diagonalization with overlap
     ethr =  1.00E-06,  avg # of iterations =  1.0

     Threshold (ethr) on eigenvalues was too large:
     Diagonalizing with lowered threshold

     Davidson diagonalization with overlap
     ethr =  4.58E-12,  avg # of iterations =  3.0

     negative rho (up, down):  9.071E-08 0.000E+00

     total cpu time spent up to now is     2453.5 secs

     End of self-consistent calculation

          k = 0.0000 0.0000 0.0000 (111965 PWs)   bands (ev):

   -10.7835  -8.2187  -8.0466  -7.6000  -7.2041  -4.9757  -4.9102  -4.5323
    -4.3831  -3.9199  -1.8032  -1.6489  -1.3995  -1.0747   0.2098

     the Fermi energy is    -1.9327 ev

!    total energy              =     -32.25080796 Ry
     Harris-Foulkes estimate   =     -32.25080797 Ry
     estimated scf accuracy    <          1.5E-09 Ry

     The total energy is the sum of the following terms:

     one-electron contribution =    -143.57531465 Ry
     hartree contribution      =      73.95650738 Ry
     xc contribution           =     -14.27095036 Ry
     ewald contribution        =      51.65122403 Ry
     smearing contrib. (-TS)   =      -0.01227436 Ry

     convergence has been achieved in   1 iterations

     negative rho (up, down):  9.071E-08 0.000E+00

     Forces acting on atoms (cartesian axes, Ry/au):

     atom    1 type  1   force =    -0.00000247   -0.00000025    0.00000000
     atom    2 type  1   force =     0.00000325    0.00000031    0.00000000
     atom    3 type  1   force =    -0.00000034   -0.00000009    0.00000000
     atom    4 type  1   force =    -0.00000043    0.00000091    0.00000000
     atom    5 type  1   force =     0.00000032    0.00000076    0.00000000
     atom    6 type  1   force =     0.00000234   -0.00000063    0.00000000
     atom    7 type  1   force =    -0.00000268   -0.00000100    0.00000000

     Total force =     0.000006     Total SCF correction =     0.000022
     SCF correction compared to forces is large: reduce conv_thr to get better values


     Computing stress (Cartesian axis) and pressure


     negative rho (up, down):  9.071E-08 0.000E+00
          total   stress  (Ry/bohr**3)                   (kbar)     P=   -0.00
  -0.00000000  -0.00000000   0.00000000         -0.00     -0.00      0.00
  -0.00000000   0.00000000   0.00000000         -0.00      0.00      0.00
   0.00000000   0.00000000  -0.00000001          0.00      0.00     -0.00


     number of scf cycles    = 126
     number of bfgs steps    = 124

     enthalpy old            =     -32.2508079646 Ry
     enthalpy new            =     -32.2508079641 Ry

     CASE: enthalpy_new > enthalpy_old

     new trust radius        =       0.0000002700 bohr

     trust_radius < trust_radius_min

     resetting bfgs history

     Message from routine bfgs:
     history already reset at previous step: stopping
     new conv_thr            =       0.0000000100 Ry

     new unit-cell volume =   6563.26828 a.u.^3 (   972.57600 Ang^3 )
     density =      0.35833 g/cm^3

CELL_PARAMETERS (alat= 16.84048341)
   1.107393993   0.002503752   0.000000000
  -0.554945052   0.551687865   0.000000000
   0.000000000   0.000000000   2.244265901

ATOMIC_POSITIONS (angstrom)
Al       0.172470446   1.290980917   0.000000000
Al       3.169166095   1.297759337   0.000000000
Al       6.165893063   1.304537164   0.000000000
Al      -3.019848867   3.803731417   0.000000000
Al      -0.521814243   3.809378518   0.000000000
Al       1.914721798   3.702564878   0.000000000
Al       4.412771992   3.708197307   0.000000000



     Writing output data file 4al_planar_2x2_vcr.save/
     NEW-OLD atomic charge density approx. for the potential

     negative rho (up, down):  9.071E-08 0.000E+00

     total cpu time spent up to now is     2465.8 secs

     Self-consistent Calculation

     iteration #  1     ecut=    80.00 Ry     beta= 0.40
     Davidson diagonalization with overlap
     ethr =  1.00E-06,  avg # of iterations =  1.0

     Threshold (ethr) on eigenvalues was too large:
     Diagonalizing with lowered threshold

     Davidson diagonalization with overlap
     ethr =  2.70E-11,  avg # of iterations =  1.0

     negative rho (up, down):  9.056E-08 0.000E+00

     total cpu time spent up to now is     2467.4 secs

     End of self-consistent calculation

          k = 0.0000 0.0000 0.0000 (111965 PWs)   bands (ev):

   -10.7834  -8.2186  -8.0465  -7.6000  -7.2041  -4.9757  -4.9101  -4.5323
    -4.3831  -3.9199  -1.8032  -1.6489  -1.3995  -1.0747   0.2098

     the Fermi energy is    -1.9326 ev

!    total energy              =     -32.25080796 Ry
     Harris-Foulkes estimate   =     -32.25080797 Ry
     estimated scf accuracy    <          5.9E-09 Ry

     The total energy is the sum of the following terms:

     one-electron contribution =    -143.57530217 Ry
     hartree contribution      =      73.95649198 Ry
     xc contribution           =     -14.27094708 Ry
     ewald contribution        =      51.65122403 Ry
     smearing contrib. (-TS)   =      -0.01227472 Ry

     convergence has been achieved in   1 iterations

     negative rho (up, down):  9.056E-08 0.000E+00

     Forces acting on atoms (cartesian axes, Ry/au):

     atom    1 type  1   force =     0.00000033   -0.00000172    0.00000000
     atom    2 type  1   force =    -0.00000175    0.00000099    0.00000000
     atom    3 type  1   force =     0.00000134    0.00000128    0.00000000
     atom    4 type  1   force =    -0.00000566   -0.00000085    0.00000000
     atom    5 type  1   force =     0.00000229    0.00000162    0.00000000
     atom    6 type  1   force =     0.00000273   -0.00000134    0.00000000
     atom    7 type  1   force =     0.00000071    0.00000003    0.00000000

     Total force =     0.000008     Total SCF correction =     0.000047
     SCF correction compared to forces is large: reduce conv_thr to get better values


     Computing stress (Cartesian axis) and pressure


     negative rho (up, down):  9.056E-08 0.000E+00
          total   stress  (Ry/bohr**3)                   (kbar)     P=   -0.00
   0.00000000  -0.00000000   0.00000000          0.00     -0.00      0.00
  -0.00000000  -0.00000000   0.00000000         -0.00     -0.00      0.00
   0.00000000   0.00000000  -0.00000001          0.00      0.00     -0.00


     bfgs converged in 127 scf cycles and 124 bfgs steps
     (criteria: energy <  1.0E-05 Ry, force <  1.0E-04Ry/Bohr, cell <  5.0E-05kbar)

     End of BFGS Geometry Optimization

     Final enthalpy =     -32.2508079616 Ry
Begin final coordinates
     new unit-cell volume =   6563.26828 a.u.^3 (   972.57600 Ang^3 )
     density =      0.35833 g/cm^3

CELL_PARAMETERS (alat= 16.84048341)
   1.107393993   0.002503752   0.000000000
  -0.554945052   0.551687865   0.000000000
   0.000000000   0.000000000   2.244265901

ATOMIC_POSITIONS (angstrom)
Al       0.172470446   1.290980917   0.000000000
Al       3.169166095   1.297759337   0.000000000
Al       6.165893063   1.304537164   0.000000000
Al      -3.019848867   3.803731417   0.000000000
Al      -0.521814243   3.809378518   0.000000000
Al       1.914721798   3.702564878   0.000000000
Al       4.412771992   3.708197307   0.000000000
End final coordinates



     Writing output data file 4al_planar_2x2_vcr.save/

     A final scf calculation at the relaxed structure.
     The G-vectors are recalculated for the final unit cell
     Results may differ from those at the preceding step.
 
     Parallelization info
     --------------------
     sticks:   dense  smooth     PW     G-vecs:    dense   smooth      PW
     Min         553     553    137                79301    79301    9903
     Max         554     554    138                79306    79306    9912
     Sum        4425    4425   1101               634415   634415   79271
 


     bravais-lattice index     =            4
     lattice parameter (alat)  =      16.8405  a.u.
     unit-cell volume          =    6563.2683 (a.u.)^3
     number of atoms/cell      =            7
     number of atomic types    =            1
     number of electrons       =        21.00
     number of Kohn-Sham states=           15
     kinetic-energy cutoff     =      80.0000  Ry
     charge density cutoff     =     320.0000  Ry
     convergence threshold     =      1.0E-08
     mixing beta               =       0.4000
     number of iterations used =            8  plain     mixing
     Exchange-correlation      = PBE ( 1  4  3  4 0 0)

     celldm(1)=  16.840483  celldm(2)=   0.000000  celldm(3)=   2.244266
     celldm(4)=   0.000000  celldm(5)=   0.000000  celldm(6)=   0.000000

     crystal axes: (cart. coord. in units of alat)
               a(1) = (   1.107394   0.002504   0.000000 )  
               a(2) = (  -0.554945   0.551688   0.000000 )  
               a(3) = (   0.000000   0.000000   2.244266 )  

     reciprocal axes: (cart. coord. in units 2 pi/alat)
               b(1) = (  0.900972  0.906291  0.000000 )  
               b(2) = ( -0.004089  1.808506  0.000000 )  
               b(3) = (  0.000000  0.000000  0.445580 )  


     PseudoPot. # 1 for Al read from file:
     ./Al.upf
     MD5 check sum: 4974d48a734c9d7d1eb6780a1419d19d
     Pseudo is Norm-conserving + core correction, Zval =  3.0
     Generated using ONCVPSP code by D. R. Hamann
     Using radial grid of 1876 points,  6 beta functions with: 
                l(1) =   0
                l(2) =   0
                l(3) =   1
                l(4) =   1
                l(5) =   2
                l(6) =   2

     atomic species   valence    mass     pseudopotential
        Al             3.00    29.98200     Al( 1.00)

      2 Sym. Ops. (no inversion) found



   Cartesian axes

     site n.     atom                  positions (alat units)
         1           Al  tau(   1) = (   0.0193535   0.1448652   0.0000000  )
         2           Al  tau(   2) = (   0.3556226   0.1456259   0.0000000  )
         3           Al  tau(   3) = (   0.6918952   0.1463864   0.0000000  )
         4           Al  tau(   4) = (  -0.3388672   0.4268292   0.0000000  )
         5           Al  tau(   5) = (  -0.0585545   0.4274629   0.0000000  )
         6           Al  tau(   6) = (   0.2148572   0.4154770   0.0000000  )
         7           Al  tau(   7) = (   0.4951717   0.4161090   0.0000000  )

     number of k points=     1  Methfessel-Paxton smearing, width (Ry)=  0.0500
                       cart. coord. in units 2pi/alat
        k(    1) = (   0.0000000   0.0000000   0.0000000), wk =   2.0000000

     Dense  grid:   634415 G-vectors     FFT dimensions: ( 108,  75, 216)

     Estimated max dynamical RAM per process >      96.21 MB

     Estimated total dynamical RAM >     769.67 MB

     Initial potential from superposition of free atoms

     starting charge   20.98287, renormalised to   21.00000

     negative rho (up, down):  1.732E-05 0.000E+00
     Starting wfcs are   28 randomized atomic wfcs

     total cpu time spent up to now is     2476.3 secs

     Self-consistent Calculation

     iteration #  1     ecut=    80.00 Ry     beta= 0.40
     Davidson diagonalization with overlap
     ethr =  1.00E-06,  avg # of iterations = 14.0

     negative rho (up, down):  3.014E-06 0.000E+00

     total cpu time spent up to now is     2478.0 secs

     total energy              =     -32.24557017 Ry
     Harris-Foulkes estimate   =     -32.35133675 Ry
     estimated scf accuracy    <       0.27568796 Ry

     iteration #  2     ecut=    80.00 Ry     beta= 0.40
     Davidson diagonalization with overlap
     ethr =  1.31E-03,  avg # of iterations =  1.0

     negative rho (up, down):  7.926E-07 0.000E+00

     total cpu time spent up to now is     2478.7 secs

     total energy              =     -32.24657154 Ry
     Harris-Foulkes estimate   =     -32.26402413 Ry
     estimated scf accuracy    <       0.04416224 Ry

     iteration #  3     ecut=    80.00 Ry     beta= 0.40
     Davidson diagonalization with overlap
     ethr =  2.10E-04,  avg # of iterations =  2.0

     negative rho (up, down):  1.529E-07 0.000E+00

     total cpu time spent up to now is     2479.7 secs

     total energy              =     -32.24914325 Ry
     Harris-Foulkes estimate   =     -32.25068923 Ry
     estimated scf accuracy    <       0.00425693 Ry

     iteration #  4     ecut=    80.00 Ry     beta= 0.40
     Davidson diagonalization with overlap
     ethr =  2.03E-05,  avg # of iterations =  3.0

     negative rho (up, down):  9.372E-08 0.000E+00

     total cpu time spent up to now is     2480.7 secs

     total energy              =     -32.25065996 Ry
     Harris-Foulkes estimate   =     -32.25091998 Ry
     estimated scf accuracy    <       0.00056500 Ry

     iteration #  5     ecut=    80.00 Ry     beta= 0.40
     Davidson diagonalization with overlap
     ethr =  2.69E-06,  avg # of iterations =  3.0

     negative rho (up, down):  2.892E-08 0.000E+00

     total cpu time spent up to now is     2481.9 secs

     total energy              =     -32.25075608 Ry
     Harris-Foulkes estimate   =     -32.25077024 Ry
     estimated scf accuracy    <       0.00010125 Ry

     iteration #  6     ecut=    80.00 Ry     beta= 0.40
     Davidson diagonalization with overlap
     ethr =  4.82E-07,  avg # of iterations =  2.0

     total cpu time spent up to now is     2482.9 secs

     total energy              =     -32.25075496 Ry
     Harris-Foulkes estimate   =     -32.25076782 Ry
     estimated scf accuracy    <       0.00003575 Ry

     iteration #  7     ecut=    80.00 Ry     beta= 0.40
     Davidson diagonalization with overlap
     ethr =  1.70E-07,  avg # of iterations =  2.0

     total cpu time spent up to now is     2484.0 secs

     total energy              =     -32.25075601 Ry
     Harris-Foulkes estimate   =     -32.25076001 Ry
     estimated scf accuracy    <       0.00000698 Ry

     iteration #  8     ecut=    80.00 Ry     beta= 0.40
     Davidson diagonalization with overlap
     ethr =  3.32E-08,  avg # of iterations =  3.0

     total cpu time spent up to now is     2485.2 secs

     total energy              =     -32.25075800 Ry
     Harris-Foulkes estimate   =     -32.25075841 Ry
     estimated scf accuracy    <       0.00000148 Ry

     iteration #  9     ecut=    80.00 Ry     beta= 0.40
     Davidson diagonalization with overlap
     ethr =  7.06E-09,  avg # of iterations =  3.0

     total cpu time spent up to now is     2486.4 secs

     total energy              =     -32.25075793 Ry
     Harris-Foulkes estimate   =     -32.25075811 Ry
     estimated scf accuracy    <       0.00000043 Ry

     iteration # 10     ecut=    80.00 Ry     beta= 0.40
     Davidson diagonalization with overlap
     ethr =  2.04E-09,  avg # of iterations =  3.0

     total cpu time spent up to now is     2487.6 secs

     total energy              =     -32.25075802 Ry
     Harris-Foulkes estimate   =     -32.25075804 Ry
     estimated scf accuracy    <       0.00000004 Ry

     iteration # 11     ecut=    80.00 Ry     beta= 0.40
     Davidson diagonalization with overlap
     ethr =  2.10E-10,  avg # of iterations =  2.0

     total cpu time spent up to now is     2488.6 secs

     End of self-consistent calculation

          k = 0.0000 0.0000 0.0000 ( 79271 PWs)   bands (ev):

   -10.7836  -8.2187  -8.0466  -7.6001  -7.2043  -4.9757  -4.9103  -4.5325
    -4.3832  -3.9201  -1.8033  -1.6490  -1.3997  -1.0749   0.3998

     the Fermi energy is    -1.9328 ev

!    total energy              =     -32.25075801 Ry
     Harris-Foulkes estimate   =     -32.25075802 Ry
     estimated scf accuracy    <          5.3E-09 Ry

     The total energy is the sum of the following terms:

     one-electron contribution =    -143.57491510 Ry
     hartree contribution      =      73.95614227 Ry
     xc contribution           =     -14.27092457 Ry
     ewald contribution        =      51.65122403 Ry
     smearing contrib. (-TS)   =      -0.01228465 Ry

     convergence has been achieved in  11 iterations

     Forces acting on atoms (cartesian axes, Ry/au):

     atom    1 type  1   force =    -0.00000284   -0.00000065    0.00000000
     atom    2 type  1   force =     0.00000143    0.00000032    0.00000000
     atom    3 type  1   force =     0.00000147    0.00000046    0.00000000
     atom    4 type  1   force =     0.00000334    0.00000265    0.00000000
     atom    5 type  1   force =    -0.00000403    0.00000275    0.00000000
     atom    6 type  1   force =     0.00000677   -0.00000253    0.00000000
     atom    7 type  1   force =    -0.00000615   -0.00000299    0.00000000

     Total force =     0.000012     Total SCF correction =     0.000017
     SCF correction compared to forces is large: reduce conv_thr to get better values


     Computing stress (Cartesian axis) and pressure

          total   stress  (Ry/bohr**3)                   (kbar)     P=    0.00
   0.00000003  -0.00000000   0.00000000          0.00     -0.00      0.00
  -0.00000000   0.00000002   0.00000000         -0.00      0.00      0.00
   0.00000000   0.00000000  -0.00000002          0.00      0.00     -0.00


     Writing output data file 4al_planar_2x2_vcr.save/
 
     init_run     :      4.89s CPU      5.10s WALL (       2 calls)
     electrons    :   1051.81s CPU   1065.51s WALL (     128 calls)
     update_pot   :    479.80s CPU    480.68s WALL (     126 calls)
     forces       :    275.01s CPU    275.35s WALL (     128 calls)
     stress       :    639.99s CPU    651.70s WALL (     128 calls)

     Called by init_run:
     wfcinit      :      0.58s CPU      0.61s WALL (       2 calls)
     potinit      :      1.70s CPU      1.78s WALL (       2 calls)
     hinit0       :      2.06s CPU      2.13s WALL (       2 calls)

     Called by electrons:
     c_bands      :    695.95s CPU    702.76s WALL (     921 calls)
     sum_band     :    137.66s CPU    138.66s WALL (     921 calls)
     v_of_rho     :    200.57s CPU    201.53s WALL (    1017 calls)
     mix_rho      :     31.01s CPU     31.69s WALL (     921 calls)

     Called by c_bands:
     init_us_2    :     19.62s CPU     20.00s WALL (    1844 calls)
     cegterg      :    558.08s CPU    563.94s WALL (     921 calls)

     Called by sum_band:

     Called by *egterg:
     h_psi        :    505.31s CPU    510.69s WALL (    3991 calls)
     g_psi        :      3.23s CPU      3.24s WALL (    3068 calls)
     cdiaghg      :      2.19s CPU      2.22s WALL (    3831 calls)

     Called by h_psi:
     h_psi:pot    :    503.31s CPU    507.93s WALL (    3991 calls)
     h_psi:calbec :     31.79s CPU     32.17s WALL (    3991 calls)
     vloc_psi     :    432.92s CPU    437.09s WALL (    3991 calls)
     add_vuspsi   :     38.56s CPU     38.64s WALL (    3991 calls)

     General routines
     calbec       :     39.53s CPU     40.16s WALL (    4631 calls)
     fft          :    169.24s CPU    170.40s WALL (   13528 calls)
     ffts         :     10.33s CPU     10.36s WALL (     921 calls)
     fftw         :    457.02s CPU    461.27s WALL (   95215 calls)
 
     Parallel routines
     fft_scatt_xy :     83.06s CPU     83.50s WALL (  109664 calls)
     fft_scatt_yz :    296.12s CPU    299.51s WALL (  109664 calls)
 
     PWSCF        : 40m59.60s CPU    41m32.14s WALL

 
   This run was terminated on:  11:55:37  25Nov2020            

=------------------------------------------------------------------------------=
   JOB DONE.
=------------------------------------------------------------------------------=
