
     Program PWSCF v.6.3MaX starts on 26Nov2020 at  9:12:10 

     This program is part of the open-source Quantum ESPRESSO suite
     for quantum simulation of materials; please cite
         "P. Giannozzi et al., J. Phys.:Condens. Matter 21 395502 (2009);
         "P. Giannozzi et al., J. Phys.:Condens. Matter 29 465901 (2017);
          URL http://www.quantum-espresso.org", 
     in publications or presentations arising from this work. More details at
     http://www.quantum-espresso.org/quote

     Parallel version (MPI), running on     8 processors

     MPI processes distributed on     2 nodes
     R & G space division:  proc/nbgrp/npool/nimage =       8
     Waiting for input...
     Reading input from standard input

     Current dimensions of program PWSCF are:
     Max number of different atomic species (ntypx) = 10
     Max number of k-points (npk) =  40000
     Max angular momentum in pseudopotentials (lmaxx) =  3

     Subspace diagonalization in iterative solution of the eigenvalue problem:
     a serial algorithm will be used

 
     Parallelization info
     --------------------
     sticks:   dense  smooth     PW     G-vecs:    dense   smooth      PW
     Min        3123    3123    778               448599   448599   56048
     Max        3124    3124    779               448604   448604   56052
     Sum       24985   24985   6229              3588803  3588803  448403
 


     bravais-lattice index     =            4
     lattice parameter (alat)  =      33.6810  a.u.
     unit-cell volume          =   37130.3117 (a.u.)^3
     number of atoms/cell      =           31
     number of atomic types    =            1
     number of electrons       =        93.00
     number of Kohn-Sham states=           56
     kinetic-energy cutoff     =      80.0000  Ry
     charge density cutoff     =     320.0000  Ry
     convergence threshold     =      1.0E-06
     mixing beta               =       0.4000
     number of iterations used =            8  plain     mixing
     Exchange-correlation      = PBE ( 1  4  3  4 0 0)
     nstep                     =          300


     celldm(1)=  33.680967  celldm(2)=   0.000000  celldm(3)=   1.122133
     celldm(4)=   0.000000  celldm(5)=   0.000000  celldm(6)=   0.000000

     crystal axes: (cart. coord. in units of alat)
               a(1) = (   1.000000   0.000000   0.000000 )  
               a(2) = (  -0.500000   0.866025   0.000000 )  
               a(3) = (   0.000000   0.000000   1.122133 )  

     reciprocal axes: (cart. coord. in units 2 pi/alat)
               b(1) = (  1.000000  0.577350  0.000000 )  
               b(2) = (  0.000000  1.154701  0.000000 )  
               b(3) = (  0.000000  0.000000  0.891160 )  


     PseudoPot. # 1 for Al read from file:
     ./Al.upf
     MD5 check sum: 4974d48a734c9d7d1eb6780a1419d19d
     Pseudo is Norm-conserving + core correction, Zval =  3.0
     Generated using ONCVPSP code by D. R. Hamann
     Using radial grid of 1876 points,  6 beta functions with: 
                l(1) =   0
                l(2) =   0
                l(3) =   1
                l(4) =   1
                l(5) =   2
                l(6) =   2

     atomic species   valence    mass     pseudopotential
        Al             3.00    29.98200     Al( 1.00)

      2 Sym. Ops. (no inversion) found



   Cartesian axes

     site n.     atom                  positions (alat units)
         1           Al  tau(   1) = (  -0.0000000   0.1443393   0.0000000  )
         2           Al  tau(   2) = (   0.1250015   0.0721696   0.0000000  )
         3           Al  tau(   3) = (  -0.1249997   0.3608472   0.0000000  )
         4           Al  tau(   4) = (   0.0000018   0.2886775   0.0000000  )
         5           Al  tau(   5) = (  -0.2499994   0.5773550   0.0000000  )
         6           Al  tau(   6) = (  -0.1249979   0.5051854   0.0000000  )
         7           Al  tau(   7) = (  -0.3749991   0.7938629   0.0000000  )
         8           Al  tau(   8) = (  -0.2499976   0.7216932   0.0000000  )
         9           Al  tau(   9) = (   0.2500011   0.1443403   0.0000000  )
        10           Al  tau(  10) = (   0.3750027   0.0721706   0.0000000  )
        11           Al  tau(  11) = (   0.1250014   0.3608482   0.0000000  )
        12           Al  tau(  12) = (   0.2500030   0.2886785   0.0000000  )
        13           Al  tau(  13) = (   0.0000017   0.5773560   0.0000000  )
        14           Al  tau(  14) = (   0.1250033   0.5051864   0.0000000  )
        15           Al  tau(  15) = (  -0.1249980   0.7938639   0.0000000  )
        16           Al  tau(  16) = (   0.0000036   0.7216942   0.0000000  )
        17           Al  tau(  17) = (   0.5000023   0.1443413   0.0000000  )
        18           Al  tau(  18) = (   0.6250038   0.0721717   0.0000000  )
        19           Al  tau(  19) = (   0.3750026   0.3608492   0.0000000  )
        20           Al  tau(  20) = (   0.5000041   0.2886795   0.0000000  )
        21           Al  tau(  21) = (   0.2500029   0.5773571   0.0000000  )
        22           Al  tau(  22) = (   0.3750044   0.5051874   0.0000000  )
        23           Al  tau(  23) = (   0.1250032   0.7938649   0.0000000  )
        24           Al  tau(  24) = (   0.2500047   0.7216953   0.0000000  )
        25           Al  tau(  25) = (   0.7500035   0.1443423   0.0000000  )
        26           Al  tau(  26) = (   0.6250038   0.3608502   0.0000000  )
        27           Al  tau(  27) = (   0.7500053   0.2886805   0.0000000  )
        28           Al  tau(  28) = (   0.5000041   0.5773581   0.0000000  )
        29           Al  tau(  29) = (   0.6250056   0.5051884   0.0000000  )
        30           Al  tau(  30) = (   0.3750044   0.7938660   0.0000000  )
        31           Al  tau(  31) = (   0.5000059   0.7216963   0.0000000  )

     number of k points=     1  Methfessel-Paxton smearing, width (Ry)=  0.0500
                       cart. coord. in units 2pi/alat
        k(    1) = (   0.0000000   0.0000000   0.0000000), wk =   2.0000000

     Dense  grid:  3588803 G-vectors     FFT dimensions: ( 192, 192, 216)

     Estimated max dynamical RAM per process >       1.15 GB

     Estimated total dynamical RAM >       9.23 GB

     Initial potential from superposition of free atoms

     starting charge   92.92414, renormalised to   93.00000

     negative rho (up, down):  9.278E-05 0.000E+00
     Starting wfcs are  124 randomized atomic wfcs

     total cpu time spent up to now is       29.2 secs

     Self-consistent Calculation

     iteration #  1     ecut=    80.00 Ry     beta= 0.40
     Davidson diagonalization with overlap
     ethr =  1.00E-02,  avg # of iterations =  2.0

     total cpu time spent up to now is       56.9 secs

     total energy              =    -140.64237888 Ry
     Harris-Foulkes estimate   =    -141.23598469 Ry
     estimated scf accuracy    <       1.54819059 Ry

     iteration #  2     ecut=    80.00 Ry     beta= 0.40
     Davidson diagonalization with overlap
     ethr =  1.66E-03,  avg # of iterations =  5.0

     total cpu time spent up to now is       85.8 secs

     total energy              =    -140.21956810 Ry
     Harris-Foulkes estimate   =    -141.45829520 Ry
     estimated scf accuracy    <       6.74500567 Ry

     iteration #  3     ecut=    80.00 Ry     beta= 0.40
     Davidson diagonalization with overlap
     ethr =  1.66E-03,  avg # of iterations =  5.0

     total cpu time spent up to now is      113.1 secs

     total energy              =    -140.82884105 Ry
     Harris-Foulkes estimate   =    -141.02424832 Ry
     estimated scf accuracy    <       1.17599510 Ry

     iteration #  4     ecut=    80.00 Ry     beta= 0.40
     Davidson diagonalization with overlap
     ethr =  1.26E-03,  avg # of iterations =  1.0

     total cpu time spent up to now is      133.1 secs

     total energy              =    -140.90198110 Ry
     Harris-Foulkes estimate   =    -140.94393636 Ry
     estimated scf accuracy    <       0.14420803 Ry

     iteration #  5     ecut=    80.00 Ry     beta= 0.40
     Davidson diagonalization with overlap
     ethr =  1.55E-04,  avg # of iterations =  4.0

     total cpu time spent up to now is      156.9 secs

     total energy              =    -140.91394050 Ry
     Harris-Foulkes estimate   =    -140.95490323 Ry
     estimated scf accuracy    <       0.29621761 Ry

     iteration #  6     ecut=    80.00 Ry     beta= 0.40
     Davidson diagonalization with overlap
     ethr =  1.55E-04,  avg # of iterations =  3.0

     total cpu time spent up to now is      179.1 secs

     total energy              =    -140.93237079 Ry
     Harris-Foulkes estimate   =    -140.93463959 Ry
     estimated scf accuracy    <       0.01008314 Ry

     iteration #  7     ecut=    80.00 Ry     beta= 0.40
     Davidson diagonalization with overlap
     ethr =  1.08E-05,  avg # of iterations = 11.0

     total cpu time spent up to now is      215.9 secs

     total energy              =    -140.93549363 Ry
     Harris-Foulkes estimate   =    -140.93697585 Ry
     estimated scf accuracy    <       0.00767715 Ry

     iteration #  8     ecut=    80.00 Ry     beta= 0.40
     Davidson diagonalization with overlap
     ethr =  8.25E-06,  avg # of iterations =  3.0

     total cpu time spent up to now is      239.7 secs

     total energy              =    -140.93571981 Ry
     Harris-Foulkes estimate   =    -140.93663188 Ry
     estimated scf accuracy    <       0.00481002 Ry

     iteration #  9     ecut=    80.00 Ry     beta= 0.40
     Davidson diagonalization with overlap
     ethr =  5.17E-06,  avg # of iterations =  1.0

     total cpu time spent up to now is      262.5 secs

     total energy              =    -140.93587776 Ry
     Harris-Foulkes estimate   =    -140.93614280 Ry
     estimated scf accuracy    <       0.00180369 Ry

     iteration # 10     ecut=    80.00 Ry     beta= 0.40
     Davidson diagonalization with overlap
     ethr =  1.94E-06,  avg # of iterations =  4.0

     total cpu time spent up to now is      286.1 secs

     total energy              =    -140.93600889 Ry
     Harris-Foulkes estimate   =    -140.93610366 Ry
     estimated scf accuracy    <       0.00045829 Ry

     iteration # 11     ecut=    80.00 Ry     beta= 0.40
     Davidson diagonalization with overlap
     ethr =  4.93E-07,  avg # of iterations =  5.0

     total cpu time spent up to now is      312.0 secs

     total energy              =    -140.93609405 Ry
     Harris-Foulkes estimate   =    -140.93612894 Ry
     estimated scf accuracy    <       0.00018096 Ry

     iteration # 12     ecut=    80.00 Ry     beta= 0.40
     Davidson diagonalization with overlap
     ethr =  1.95E-07,  avg # of iterations =  4.0

     total cpu time spent up to now is      335.3 secs

     total energy              =    -140.93610622 Ry
     Harris-Foulkes estimate   =    -140.93612689 Ry
     estimated scf accuracy    <       0.00012774 Ry

     iteration # 13     ecut=    80.00 Ry     beta= 0.40
     Davidson diagonalization with overlap
     ethr =  1.37E-07,  avg # of iterations =  1.0

     total cpu time spent up to now is      356.8 secs

     total energy              =    -140.93611295 Ry
     Harris-Foulkes estimate   =    -140.93611717 Ry
     estimated scf accuracy    <       0.00001850 Ry

     iteration # 14     ecut=    80.00 Ry     beta= 0.40
     Davidson diagonalization with overlap
     ethr =  1.99E-08,  avg # of iterations =  6.0

     total cpu time spent up to now is      382.8 secs

     total energy              =    -140.93611568 Ry
     Harris-Foulkes estimate   =    -140.93611867 Ry
     estimated scf accuracy    <       0.00001271 Ry

     iteration # 15     ecut=    80.00 Ry     beta= 0.40
     Davidson diagonalization with overlap
     ethr =  1.37E-08,  avg # of iterations =  3.0

     total cpu time spent up to now is      405.6 secs

     total energy              =    -140.93611560 Ry
     Harris-Foulkes estimate   =    -140.93611865 Ry
     estimated scf accuracy    <       0.00002156 Ry

     iteration # 16     ecut=    80.00 Ry     beta= 0.40
     Davidson diagonalization with overlap
     ethr =  1.37E-08,  avg # of iterations =  1.0

     total cpu time spent up to now is      427.2 secs

     total energy              =    -140.93611672 Ry
     Harris-Foulkes estimate   =    -140.93611712 Ry
     estimated scf accuracy    <       0.00000200 Ry

     iteration # 17     ecut=    80.00 Ry     beta= 0.40
     Davidson diagonalization with overlap
     ethr =  2.15E-09,  avg # of iterations =  5.0

     total cpu time spent up to now is      453.0 secs

     total energy              =    -140.93611684 Ry
     Harris-Foulkes estimate   =    -140.93611711 Ry
     estimated scf accuracy    <       0.00000134 Ry

     iteration # 18     ecut=    80.00 Ry     beta= 0.40
     Davidson diagonalization with overlap
     ethr =  1.44E-09,  avg # of iterations =  3.0

     total cpu time spent up to now is      475.3 secs

     End of self-consistent calculation

          k = 0.0000 0.0000 0.0000 (448403 PWs)   bands (ev):

    -9.9529  -9.4482  -9.4330  -9.4329  -9.4259  -9.4258  -9.1458  -8.4049
    -8.4048  -8.3881  -8.3880  -8.3796  -8.3034  -8.2568  -8.2568  -7.5865
    -6.9325  -6.9324  -6.8232  -6.4865  -6.4772  -6.4772  -6.3701  -6.3700
    -5.4640  -4.8434  -4.8433  -4.8370  -4.7357  -4.7356  -4.4781  -4.4681
    -4.4427  -4.4427  -4.1225  -4.1224  -3.9779  -3.4711  -3.4687  -3.4686
    -3.4577  -3.4577  -3.4016  -3.2744  -3.2744  -3.2223  -3.2073  -2.9743
    -2.9652  -2.9652  -2.9389  -2.5198  -2.5197  -2.4498  -2.4492  -2.4314

     the Fermi energy is    -3.0910 ev

!    total energy              =    -140.93611616 Ry
     Harris-Foulkes estimate   =    -140.93611692 Ry
     estimated scf accuracy    <       0.00000081 Ry

     The total energy is the sum of the following terms:

     one-electron contribution =    -502.03546077 Ry
     hartree contribution      =     259.76290065 Ry
     xc contribution           =     -61.33566949 Ry
     ewald contribution        =     162.75312982 Ry
     smearing contrib. (-TS)   =      -0.08101636 Ry

     convergence has been achieved in  18 iterations

     Forces acting on atoms (cartesian axes, Ry/au):

     atom    1 type  1   force =    -0.01313265   -0.00759131    0.00000000
     atom    2 type  1   force =     0.00254234   -0.00216707    0.00000000
     atom    3 type  1   force =     0.00002356   -0.00129971    0.00000000
     atom    4 type  1   force =    -0.00065535    0.00333528    0.00000000
     atom    5 type  1   force =    -0.00042048   -0.00024451    0.00000000
     atom    6 type  1   force =    -0.00000493    0.00131588    0.00000000
     atom    7 type  1   force =    -0.00111834    0.00064081    0.00000000
     atom    8 type  1   force =     0.00115563   -0.00068918    0.00000000
     atom    9 type  1   force =    -0.00370822   -0.00392155    0.00000000
     atom   10 type  1   force =     0.00001560    0.00232617    0.00000000
     atom   11 type  1   force =    -0.00526692   -0.00124459    0.00000000
     atom   12 type  1   force =     0.00185045    0.00106107    0.00000000
     atom   13 type  1   force =     0.00044864   -0.00025022    0.00000000
     atom   14 type  1   force =     0.00198022   -0.00116034    0.00000000
     atom   15 type  1   force =     0.00001323    0.00050122    0.00000000
     atom   16 type  1   force =    -0.00116083   -0.00068277    0.00000000
     atom   17 type  1   force =     0.00370901   -0.00393309    0.00000000
     atom   18 type  1   force =    -0.00252901   -0.00216410    0.00000000
     atom   19 type  1   force =     0.00001040   -0.00001593    0.00000000
     atom   20 type  1   force =    -0.00185323    0.00106587    0.00000000
     atom   21 type  1   force =    -0.00154697    0.00520267    0.00000000
     atom   22 type  1   force =     0.00000151   -0.00213399    0.00000000
     atom   23 type  1   force =     0.00115733    0.00063473    0.00000000
     atom   24 type  1   force =    -0.00319526   -0.00110624    0.00000000
     atom   25 type  1   force =     0.01310929   -0.00757692    0.00000000
     atom   26 type  1   force =     0.00527021   -0.00125552    0.00000000
     atom   27 type  1   force =     0.00061386    0.00329494    0.00000000
     atom   28 type  1   force =     0.00153752    0.00519515    0.00000000
     atom   29 type  1   force =    -0.00199597   -0.00117599    0.00000000
     atom   30 type  1   force =    -0.00000507    0.01516577    0.00000000
     atom   31 type  1   force =     0.00315443   -0.00112655    0.00000000

     Total force =     0.031205     Total SCF correction =     0.000709


     Computing stress (Cartesian axis) and pressure

          total   stress  (Ry/bohr**3)                   (kbar)     P=   -0.57
  -0.00000578   0.00000001   0.00000000         -0.85      0.00      0.00
   0.00000001  -0.00000580   0.00000000          0.00     -0.85      0.00
   0.00000000   0.00000000   0.00000000          0.00      0.00      0.00


     BFGS Geometry Optimization

     number of scf cycles    =   1
     number of bfgs steps    =   0

     enthalpy new            =    -140.9361161632 Ry

     new trust radius        =       0.0151688687 bohr
     new conv_thr            =       0.0000010000 Ry

     new unit-cell volume =  37119.56620 a.u.^3 (  5500.55214 Ang^3 )
     density =      0.28059 g/cm^3

CELL_PARAMETERS (alat= 33.68096681)
   0.999855529   0.000000176   0.000000000
  -0.499927612   0.865899785   0.000000000
   0.000000000   0.000000000   1.122132950

ATOMIC_POSITIONS (angstrom)
Al      -0.006948630   2.568198407   0.000000000
Al       2.228950250   1.284960773   0.000000000
Al      -2.227559761   6.429830668   0.000000000
Al      -0.000313747   5.146175440   0.000000000
Al      -4.455366802  10.288692340   0.000000000
Al      -2.227541702   9.003410342   0.000000000
Al      -6.683308134  14.147464132   0.000000000
Al      -4.454499746  12.860652832   0.000000000
Al       4.453214903   2.570159058   0.000000000
Al       6.682790411   1.287357128   0.000000000
Al       2.224818101   6.429878808   0.000000000
Al       4.456189136   5.144991134   0.000000000
Al       0.000270113  10.288708296   0.000000000
Al       2.228685702   9.002119155   0.000000000
Al      -2.227532357  14.147409257   0.000000000
Al      -0.000548326  12.860675204   0.000000000
Al       8.912316425   2.570171932   0.000000000
Al      11.136621114   1.285000305   0.000000000
Al       6.682787395   6.430547873   0.000000000
Al       8.909406577   5.145012652   0.000000000
Al       4.454391296  10.291612403   0.000000000
Al       6.682815823   9.001622974   0.000000000
Al       2.228250044  14.147498875   0.000000000
Al       4.453552314  12.860470126   0.000000000
Al      13.372467179   2.568262960   0.000000000
Al      11.140747426   6.429910982   0.000000000
Al      13.365888973   5.146211031   0.000000000
Al       8.911200360  10.291627402   0.000000000
Al      11.136936018   9.002148831   0.000000000
Al       6.682812077  14.155206232   0.000000000
Al       8.912089003  12.860478359   0.000000000



     Writing output data file 26al_planar_2x2_vcr.save/
     NEW-OLD atomic charge density approx. for the potential

     negative rho (up, down):  2.993E-07 0.000E+00
     extrapolated charge   92.97310, renormalised to   93.00000

     total cpu time spent up to now is      550.5 secs

     Self-consistent Calculation

     iteration #  1     ecut=    80.00 Ry     beta= 0.40
     Davidson diagonalization with overlap
     ethr =  1.00E-06,  avg # of iterations =  4.0

     negative rho (up, down):  1.477E-07 0.000E+00

     total cpu time spent up to now is      580.9 secs

     total energy              =    -140.93704047 Ry
     Harris-Foulkes estimate   =    -141.07024637 Ry
     estimated scf accuracy    <       0.00014314 Ry

     iteration #  2     ecut=    80.00 Ry     beta= 0.40
     Davidson diagonalization with overlap
     ethr =  1.54E-07,  avg # of iterations = 13.0

     negative rho (up, down):  1.339E-07 0.000E+00

     total cpu time spent up to now is      616.3 secs

     total energy              =    -140.93690486 Ry
     Harris-Foulkes estimate   =    -140.93726139 Ry
     estimated scf accuracy    <       0.00288402 Ry

     iteration #  3     ecut=    80.00 Ry     beta= 0.40
     Davidson diagonalization with overlap
     ethr =  1.54E-07,  avg # of iterations =  7.0

     negative rho (up, down):  9.749E-08 0.000E+00

     total cpu time spent up to now is      645.3 secs

     total energy              =    -140.93707854 Ry
     Harris-Foulkes estimate   =    -140.93708405 Ry
     estimated scf accuracy    <       0.00003102 Ry

     iteration #  4     ecut=    80.00 Ry     beta= 0.40
     Davidson diagonalization with overlap
     ethr =  3.34E-08,  avg # of iterations =  3.0

     negative rho (up, down):  5.285E-08 0.000E+00

     total cpu time spent up to now is      667.3 secs

     total energy              =    -140.93707778 Ry
     Harris-Foulkes estimate   =    -140.93708033 Ry
     estimated scf accuracy    <       0.00001109 Ry

     iteration #  5     ecut=    80.00 Ry     beta= 0.40
     Davidson diagonalization with overlap
     ethr =  1.19E-08,  avg # of iterations =  5.0

     negative rho (up, down):  2.961E-08 0.000E+00

     total cpu time spent up to now is      694.3 secs

     total energy              =    -140.93707561 Ry
     Harris-Foulkes estimate   =    -140.93708193 Ry
     estimated scf accuracy    <       0.00003808 Ry

     iteration #  6     ecut=    80.00 Ry     beta= 0.40
     Davidson diagonalization with overlap
     ethr =  1.19E-08,  avg # of iterations =  4.0

     negative rho (up, down):  1.682E-08 0.000E+00

     total cpu time spent up to now is      719.1 secs

     total energy              =    -140.93707871 Ry
     Harris-Foulkes estimate   =    -140.93707971 Ry
     estimated scf accuracy    <       0.00000675 Ry

     iteration #  7     ecut=    80.00 Ry     beta= 0.40
     Davidson diagonalization with overlap
     ethr =  7.26E-09,  avg # of iterations =  1.0

     negative rho (up, down):  1.210E-08 0.000E+00

     total cpu time spent up to now is      739.7 secs

     total energy              =    -140.93707893 Ry
     Harris-Foulkes estimate   =    -140.93707920 Ry
     estimated scf accuracy    <       0.00000142 Ry

     iteration #  8     ecut=    80.00 Ry     beta= 0.40
     Davidson diagonalization with overlap
     ethr =  1.53E-09,  avg # of iterations =  5.0

     total cpu time spent up to now is      764.2 secs

     total energy              =    -140.93707887 Ry
     Harris-Foulkes estimate   =    -140.93707915 Ry
     estimated scf accuracy    <       0.00000231 Ry

     iteration #  9     ecut=    80.00 Ry     beta= 0.40
     Davidson diagonalization with overlap
     ethr =  1.53E-09,  avg # of iterations =  3.0

     total cpu time spent up to now is      786.8 secs

     End of self-consistent calculation

          k = 0.0000 0.0000 0.0000 (448403 PWs)   bands (ev):

    -9.9535  -9.4493  -9.4340  -9.4332  -9.4254  -9.4247  -9.1442  -8.4059
    -8.4042  -8.3848  -8.3845  -8.3811  -8.3056  -8.2543  -8.2537  -7.5860
    -6.9326  -6.9323  -6.8234  -6.4818  -6.4782  -6.4774  -6.3723  -6.3720
    -5.4690  -4.8399  -4.8399  -4.8360  -4.7366  -4.7366  -4.4775  -4.4677
    -4.4431  -4.4429  -4.1247  -4.1246  -3.9781  -3.4719  -3.4673  -3.4669
    -3.4589  -3.4579  -3.3995  -3.2741  -3.2734  -3.2212  -3.2172  -2.9706
    -2.9638  -2.9634  -2.9408  -2.5179  -2.5176  -2.4490  -2.4466  -2.4446

     the Fermi energy is    -3.0911 ev

!    total energy              =    -140.93707880 Ry
     Harris-Foulkes estimate   =    -140.93707891 Ry
     estimated scf accuracy    <       0.00000021 Ry

     The total energy is the sum of the following terms:

     one-electron contribution =    -502.12239052 Ry
     hartree contribution      =     259.80520729 Ry
     xc contribution           =     -61.33362278 Ry
     ewald contribution        =     162.79472728 Ry
     smearing contrib. (-TS)   =      -0.08100008 Ry

     convergence has been achieved in   9 iterations

     Forces acting on atoms (cartesian axes, Ry/au):

     atom    1 type  1   force =    -0.01294319   -0.00750560    0.00000000
     atom    2 type  1   force =     0.00155512   -0.00154157    0.00000000
     atom    3 type  1   force =     0.00004024   -0.00080427    0.00000000
     atom    4 type  1   force =    -0.00043434    0.00213287    0.00000000
     atom    5 type  1   force =    -0.00049387   -0.00025987    0.00000000
     atom    6 type  1   force =     0.00003946    0.00106776    0.00000000
     atom    7 type  1   force =    -0.00082812    0.00047310    0.00000000
     atom    8 type  1   force =     0.00095218   -0.00055781    0.00000000
     atom    9 type  1   force =    -0.00336049   -0.00341164    0.00000000
     atom   10 type  1   force =    -0.00005541    0.00249544    0.00000000
     atom   11 type  1   force =    -0.00472889   -0.00125692    0.00000000
     atom   12 type  1   force =     0.00147145    0.00079417    0.00000000
     atom   13 type  1   force =     0.00063972   -0.00036437    0.00000000
     atom   14 type  1   force =     0.00194752   -0.00110325    0.00000000
     atom   15 type  1   force =    -0.00001733    0.00052374    0.00000000
     atom   16 type  1   force =    -0.00089764   -0.00057190    0.00000000
     atom   17 type  1   force =     0.00346348   -0.00332188    0.00000000
     atom   18 type  1   force =    -0.00162653   -0.00141217    0.00000000
     atom   19 type  1   force =    -0.00000692    0.00000036    0.00000000
     atom   20 type  1   force =    -0.00134254    0.00077032    0.00000000
     atom   21 type  1   force =    -0.00131257    0.00470669    0.00000000
     atom   22 type  1   force =     0.00004415   -0.00169529    0.00000000
     atom   23 type  1   force =     0.00074058    0.00037304    0.00000000
     atom   24 type  1   force =    -0.00208749   -0.00065285    0.00000000
     atom   25 type  1   force =     0.01295910   -0.00748882    0.00000000
     atom   26 type  1   force =     0.00461587   -0.00134586    0.00000000
     atom   27 type  1   force =     0.00038265    0.00210970    0.00000000
     atom   28 type  1   force =     0.00130650    0.00462273    0.00000000
     atom   29 type  1   force =    -0.00216171   -0.00116976    0.00000000
     atom   30 type  1   force =     0.00002470    0.01495935    0.00000000
     atom   31 type  1   force =     0.00211430   -0.00056545    0.00000000

     Total force =     0.029533     Total SCF correction =     0.000325


     Computing stress (Cartesian axis) and pressure

          total   stress  (Ry/bohr**3)                   (kbar)     P=   -0.58
  -0.00000594   0.00000002   0.00000000         -0.87      0.00      0.00
   0.00000002  -0.00000591   0.00000000          0.00     -0.87      0.00
   0.00000000   0.00000000   0.00000000          0.00      0.00      0.00


     number of scf cycles    =   2
     number of bfgs steps    =   1

     enthalpy old            =    -140.9361161632 Ry
     enthalpy new            =    -140.9370787986 Ry

     CASE: enthalpy_new < enthalpy_old


     WARNING: bfgs curvature condition failed, Theta= 0.846
     new trust radius        =       0.0227500165 bohr
     new conv_thr            =       0.0000009626 Ry

     new unit-cell volume =  37103.10786 a.u.^3 (  5498.11326 Ang^3 )
     density =      0.28071 g/cm^3

CELL_PARAMETERS (alat= 33.68096681)
   0.999633641   0.000000646   0.000000000
  -0.499816261   0.865707740   0.000000000
   0.000000000   0.000000000   1.122132950

ATOMIC_POSITIONS (angstrom)
Al      -0.017361594   2.561597819   0.000000000
Al       2.230037604   1.283230367   0.000000000
Al      -2.227035926   6.427592624   0.000000000
Al      -0.000734219   5.147152537   0.000000000
Al      -4.454743083  10.286208567   0.000000000
Al      -2.227026764   9.002353685   0.000000000
Al      -6.682579882  14.144762820   0.000000000
Al      -4.452674086  12.857310862   0.000000000
Al       4.449421445   2.566689019   0.000000000
Al       6.681287952   1.289012832   0.000000000
Al       2.220361548   6.427454566   0.000000000
Al       4.456509043   5.144579951   0.000000000
Al       0.000721112  10.286176838   0.000000000
Al       2.229763992   8.999224270   0.000000000
Al      -2.227034779  14.144685468   0.000000000
Al      -0.001350066  12.857331064   0.000000000
Al       8.913193612   2.566741118   0.000000000
Al      11.132540760   1.283334302   0.000000000
Al       6.681307764   6.429121253   0.000000000
Al       8.906183452   5.144594285   0.000000000
Al       4.452277737  10.293268437   0.000000000
Al       6.681357720   8.998126267   0.000000000
Al       2.228497026  14.144753876   0.000000000
Al       4.450521630  12.856946206   0.000000000
Al      13.379915757   2.561681261   0.000000000
Al      11.142193341   6.427446486   0.000000000
Al      13.363310343   5.147169990   0.000000000
Al       8.910351490  10.293244534   0.000000000
Al      11.132796681   8.999222328   0.000000000
Al       6.681345250  14.164107623   0.000000000
Al       8.912163958  12.856989580   0.000000000



     Writing output data file 26al_planar_2x2_vcr.save/
     NEW-OLD atomic charge density approx. for the potential

     negative rho (up, down):  4.865E-07 0.000E+00
     extrapolated charge   92.95878, renormalised to   93.00000

     total cpu time spent up to now is      860.7 secs

     Self-consistent Calculation

     iteration #  1     ecut=    80.00 Ry     beta= 0.40
     Davidson diagonalization with overlap
     ethr =  1.00E-06,  avg # of iterations =  4.0

     negative rho (up, down):  2.437E-07 0.000E+00

     total cpu time spent up to now is      892.8 secs

     total energy              =    -140.93840630 Ry
     Harris-Foulkes estimate   =    -141.14250409 Ry
     estimated scf accuracy    <       0.00010316 Ry

     iteration #  2     ecut=    80.00 Ry     beta= 0.40
     Davidson diagonalization with overlap
     ethr =  1.11E-07,  avg # of iterations =  6.0

     negative rho (up, down):  2.192E-07 0.000E+00

     total cpu time spent up to now is      927.9 secs

     total energy              =    -140.93839411 Ry
     Harris-Foulkes estimate   =    -140.93853938 Ry
     estimated scf accuracy    <       0.00109704 Ry

     iteration #  3     ecut=    80.00 Ry     beta= 0.40
     Davidson diagonalization with overlap
     ethr =  1.11E-07,  avg # of iterations =  4.0

     negative rho (up, down):  1.391E-07 0.000E+00

     total cpu time spent up to now is      955.8 secs

     total energy              =    -140.93846220 Ry
     Harris-Foulkes estimate   =    -140.93846924 Ry
     estimated scf accuracy    <       0.00003110 Ry

     iteration #  4     ecut=    80.00 Ry     beta= 0.40
     Davidson diagonalization with overlap
     ethr =  3.34E-08,  avg # of iterations =  4.0

     negative rho (up, down):  9.792E-08 0.000E+00

     total cpu time spent up to now is      978.5 secs

     total energy              =    -140.93846224 Ry
     Harris-Foulkes estimate   =    -140.93846663 Ry
     estimated scf accuracy    <       0.00001713 Ry

     iteration #  5     ecut=    80.00 Ry     beta= 0.40
     Davidson diagonalization with overlap
     ethr =  1.84E-08,  avg # of iterations =  4.0

     negative rho (up, down):  4.564E-08 0.000E+00

     total cpu time spent up to now is     1000.4 secs

     total energy              =    -140.93846287 Ry
     Harris-Foulkes estimate   =    -140.93846709 Ry
     estimated scf accuracy    <       0.00002519 Ry

     iteration #  6     ecut=    80.00 Ry     beta= 0.40
     Davidson diagonalization with overlap
     ethr =  1.84E-08,  avg # of iterations =  4.0

     negative rho (up, down):  2.079E-08 0.000E+00

     total cpu time spent up to now is     1021.7 secs

     total energy              =    -140.93846466 Ry
     Harris-Foulkes estimate   =    -140.93846559 Ry
     estimated scf accuracy    <       0.00000426 Ry

     iteration #  7     ecut=    80.00 Ry     beta= 0.40
     Davidson diagonalization with overlap
     ethr =  4.58E-09,  avg # of iterations =  4.0

     negative rho (up, down):  1.270E-08 0.000E+00

     total cpu time spent up to now is     1044.9 secs

     total energy              =    -140.93846489 Ry
     Harris-Foulkes estimate   =    -140.93846571 Ry
     estimated scf accuracy    <       0.00000529 Ry

     iteration #  8     ecut=    80.00 Ry     beta= 0.40
     Davidson diagonalization with overlap
     ethr =  4.58E-09,  avg # of iterations =  3.0

     total cpu time spent up to now is     1066.0 secs

     End of self-consistent calculation

          k = 0.0000 0.0000 0.0000 (448403 PWs)   bands (ev):

    -9.9543  -9.4499  -9.4362  -9.4353  -9.4236  -9.4230  -9.1418  -8.4050
    -8.4034  -8.3854  -8.3803  -8.3800  -8.3078  -8.2506  -8.2501  -7.5847
    -6.9326  -6.9324  -6.8231  -6.4788  -6.4778  -6.4759  -6.3752  -6.3750
    -5.4771  -4.8347  -4.8347  -4.8334  -4.7377  -4.7376  -4.4757  -4.4666
    -4.4436  -4.4434  -4.1288  -4.1287  -3.9784  -3.4719  -3.4669  -3.4662
    -3.4590  -3.4582  -3.3970  -3.2723  -3.2717  -3.2327  -3.2198  -2.9654
    -2.9614  -2.9610  -2.9434  -2.5141  -2.5139  -2.4467  -2.4423  -2.4413

     the Fermi energy is    -3.0908 ev

!    total energy              =    -140.93846528 Ry
     Harris-Foulkes estimate   =    -140.93846533 Ry
     estimated scf accuracy    <       0.00000022 Ry

     The total energy is the sum of the following terms:

     one-electron contribution =    -502.25988684 Ry
     hartree contribution      =     259.87376161 Ry
     xc contribution           =     -61.33134424 Ry
     ewald contribution        =     162.85940519 Ry
     smearing contrib. (-TS)   =      -0.08040100 Ry

     convergence has been achieved in   8 iterations

     Forces acting on atoms (cartesian axes, Ry/au):

     atom    1 type  1   force =    -0.01279621   -0.00743432    0.00000000
     atom    2 type  1   force =    -0.00007953   -0.00073358    0.00000000
     atom    3 type  1   force =     0.00002499   -0.00034596    0.00000000
     atom    4 type  1   force =    -0.00056007    0.00032628    0.00000000
     atom    5 type  1   force =    -0.00078467   -0.00041059    0.00000000
     atom    6 type  1   force =     0.00005701    0.00074143    0.00000000
     atom    7 type  1   force =    -0.00041848    0.00022740    0.00000000
     atom    8 type  1   force =     0.00066373   -0.00039261    0.00000000
     atom    9 type  1   force =    -0.00273930   -0.00243687    0.00000000
     atom   10 type  1   force =    -0.00004769    0.00239698    0.00000000
     atom   11 type  1   force =    -0.00354151   -0.00119003    0.00000000
     atom   12 type  1   force =     0.00079486    0.00044433    0.00000000
     atom   13 type  1   force =     0.00088355   -0.00050185    0.00000000
     atom   14 type  1   force =     0.00190092   -0.00109268    0.00000000
     atom   15 type  1   force =    -0.00003336    0.00085052    0.00000000
     atom   16 type  1   force =    -0.00060067   -0.00043120    0.00000000
     atom   17 type  1   force =     0.00281145   -0.00233410    0.00000000
     atom   18 type  1   force =     0.00003115   -0.00064224    0.00000000
     atom   19 type  1   force =     0.00000909   -0.00000631    0.00000000
     atom   20 type  1   force =    -0.00070913    0.00041229    0.00000000
     atom   21 type  1   force =    -0.00076359    0.00365654    0.00000000
     atom   22 type  1   force =     0.00001985   -0.00093674    0.00000000
     atom   23 type  1   force =     0.00033091    0.00015019    0.00000000
     atom   24 type  1   force =    -0.00057790    0.00036175    0.00000000
     atom   25 type  1   force =     0.01281373   -0.00742314    0.00000000
     atom   26 type  1   force =     0.00342635   -0.00125884    0.00000000
     atom   27 type  1   force =     0.00055581    0.00030861    0.00000000
     atom   28 type  1   force =     0.00076624    0.00359384    0.00000000
     atom   29 type  1   force =    -0.00207148   -0.00114168    0.00000000
     atom   30 type  1   force =     0.00002555    0.01479250    0.00000000
     atom   31 type  1   force =     0.00060843    0.00045008    0.00000000

     Total force =     0.027654     Total SCF correction =     0.000245


     Computing stress (Cartesian axis) and pressure

          total   stress  (Ry/bohr**3)                   (kbar)     P=   -0.60
  -0.00000610   0.00000000   0.00000000         -0.90      0.00      0.00
   0.00000000  -0.00000608   0.00000000          0.00     -0.90      0.00
   0.00000000   0.00000000   0.00000002          0.00      0.00      0.00


     number of scf cycles    =   3
     number of bfgs steps    =   2

     enthalpy old            =    -140.9370787986 Ry
     enthalpy new            =    -140.9384652793 Ry

     CASE: enthalpy_new < enthalpy_old

     new trust radius        =       0.0341174691 bohr
     new conv_thr            =       0.0000010000 Ry

     new unit-cell volume =  37077.91819 a.u.^3 (  5494.38054 Ang^3 )
     density =      0.28090 g/cm^3

CELL_PARAMETERS (alat= 33.68096681)
   0.999294227   0.000000867   0.000000000
  -0.499646363   0.865413732   0.000000000
   0.000000000   0.000000000   1.122132950

ATOMIC_POSITIONS (angstrom)
Al      -0.032970003   2.551677867   0.000000000
Al       2.230621683   1.281120788   0.000000000
Al      -2.226249828   6.424463228   0.000000000
Al      -0.001469833   5.147451118   0.000000000
Al      -4.453977958  10.282309112   0.000000000
Al      -2.226234907   9.000507342   0.000000000
Al      -6.681197197  14.140460710   0.000000000
Al      -4.450088666  12.852308104   0.000000000
Al       4.444078618   2.562069621   0.000000000
Al       6.678999312   1.291420358   0.000000000
Al       2.214399589   6.423810102   0.000000000
Al       4.456532860   5.143709893   0.000000000
Al       0.001548611  10.282218679   0.000000000
Al       2.231344272   8.994813591   0.000000000
Al      -2.226289490  14.140722637   0.000000000
Al      -0.002380616  12.852307604   0.000000000
Al       8.914044430   2.562180945   0.000000000
Al      11.127398807   1.281283540   0.000000000
Al       6.679053178   6.426926600   0.000000000
Al       8.901674539   5.143707530   0.000000000
Al       4.449421532  10.295026221   0.000000000
Al       6.679103167   8.993288160   0.000000000
Al       2.228600807  14.140403120   0.000000000
Al       4.446875932  12.852219191   0.000000000
Al      13.390985658   2.551779345   0.000000000
Al      11.143550832   6.423755682   0.000000000
Al      13.359486851   5.147437354   0.000000000
Al       8.908671775  10.294960840   0.000000000
Al      11.126569745   8.994774798   0.000000000
Al       6.679092919  14.177342521   0.000000000
Al       8.911273811  12.852307040   0.000000000



     Writing output data file 26al_planar_2x2_vcr.save/
     NEW-OLD atomic charge density approx. for the potential

     negative rho (up, down):  7.557E-07 0.000E+00
     extrapolated charge   92.93687, renormalised to   93.00000

     total cpu time spent up to now is     1139.9 secs

     Self-consistent Calculation

     iteration #  1     ecut=    80.00 Ry     beta= 0.40
     Davidson diagonalization with overlap
     ethr =  1.00E-06,  avg # of iterations =  5.0

     negative rho (up, down):  3.845E-07 0.000E+00

     total cpu time spent up to now is     1179.7 secs

     total energy              =    -140.94022850 Ry
     Harris-Foulkes estimate   =    -141.25297603 Ry
     estimated scf accuracy    <       0.00021199 Ry

     iteration #  2     ecut=    80.00 Ry     beta= 0.40
     Davidson diagonalization with overlap
     ethr =  2.28E-07,  avg # of iterations =  8.0

     negative rho (up, down):  3.463E-07 0.000E+00

     total cpu time spent up to now is     1215.9 secs

     total energy              =    -140.94020008 Ry
     Harris-Foulkes estimate   =    -140.94049936 Ry
     estimated scf accuracy    <       0.00226620 Ry

     iteration #  3     ecut=    80.00 Ry     beta= 0.40
     Davidson diagonalization with overlap
     ethr =  2.28E-07,  avg # of iterations =  4.0

     negative rho (up, down):  2.288E-07 0.000E+00

     total cpu time spent up to now is     1242.7 secs

     total energy              =    -140.94033976 Ry
     Harris-Foulkes estimate   =    -140.94035523 Ry
     estimated scf accuracy    <       0.00006751 Ry

     iteration #  4     ecut=    80.00 Ry     beta= 0.40
     Davidson diagonalization with overlap
     ethr =  7.26E-08,  avg # of iterations =  4.0

     negative rho (up, down):  1.628E-07 0.000E+00

     total cpu time spent up to now is     1264.2 secs

     total energy              =    -140.94034103 Ry
     Harris-Foulkes estimate   =    -140.94034875 Ry
     estimated scf accuracy    <       0.00003147 Ry

     iteration #  5     ecut=    80.00 Ry     beta= 0.40
     Davidson diagonalization with overlap
     ethr =  3.38E-08,  avg # of iterations =  3.0

     negative rho (up, down):  8.678E-08 0.000E+00

     total cpu time spent up to now is     1288.9 secs

     total energy              =    -140.94034015 Ry
     Harris-Foulkes estimate   =    -140.94035155 Ry
     estimated scf accuracy    <       0.00007325 Ry

     iteration #  6     ecut=    80.00 Ry     beta= 0.40
     Davidson diagonalization with overlap
     ethr =  3.38E-08,  avg # of iterations =  3.0

     negative rho (up, down):  2.677E-08 0.000E+00

     total cpu time spent up to now is     1312.5 secs

     total energy              =    -140.94034576 Ry
     Harris-Foulkes estimate   =    -140.94034694 Ry
     estimated scf accuracy    <       0.00000688 Ry

     iteration #  7     ecut=    80.00 Ry     beta= 0.40
     Davidson diagonalization with overlap
     ethr =  7.40E-09,  avg # of iterations =  4.0

     negative rho (up, down):  1.872E-08 0.000E+00

     total cpu time spent up to now is     1336.8 secs

     total energy              =    -140.94034620 Ry
     Harris-Foulkes estimate   =    -140.94034728 Ry
     estimated scf accuracy    <       0.00000657 Ry

     iteration #  8     ecut=    80.00 Ry     beta= 0.40
     Davidson diagonalization with overlap
     ethr =  7.06E-09,  avg # of iterations =  1.0

     total cpu time spent up to now is     1356.9 secs

     End of self-consistent calculation

          k = 0.0000 0.0000 0.0000 (448403 PWs)   bands (ev):

    -9.9556  -9.4507  -9.4398  -9.4390  -9.4208  -9.4203  -9.1386  -8.4041
    -8.4028  -8.3911  -8.3748  -8.3743  -8.3108  -8.2447  -8.2443  -7.5829
    -6.9327  -6.9326  -6.8233  -6.4792  -6.4781  -6.4683  -6.3786  -6.3784
    -5.4887  -4.8299  -4.8277  -4.8277  -4.7385  -4.7383  -4.4732  -4.4649
    -4.4442  -4.4441  -4.1349  -4.1348  -3.9789  -3.4720  -3.4675  -3.4668
    -3.4580  -3.4572  -3.3932  -3.2696  -3.2691  -3.2555  -3.2179  -2.9603
    -2.9577  -2.9574  -2.9440  -2.5088  -2.5086  -2.4449  -2.4373  -2.4358

     the Fermi energy is    -3.0904 ev

!    total energy              =    -140.94034651 Ry
     Harris-Foulkes estimate   =    -140.94034682 Ry
     estimated scf accuracy    <       0.00000059 Ry

     The total energy is the sum of the following terms:

     one-electron contribution =    -502.47044634 Ry
     hartree contribution      =     259.97862426 Ry
     xc contribution           =     -61.32824340 Ry
     ewald contribution        =     162.95918640 Ry
     smearing contrib. (-TS)   =      -0.07946744 Ry

     convergence has been achieved in   8 iterations

     Forces acting on atoms (cartesian axes, Ry/au):

     atom    1 type  1   force =    -0.01272420   -0.00740202    0.00000000
     atom    2 type  1   force =    -0.00221817    0.00033707    0.00000000
     atom    3 type  1   force =     0.00001315    0.00019782    0.00000000
     atom    4 type  1   force =    -0.00073066   -0.00205286    0.00000000
     atom    5 type  1   force =    -0.00113389   -0.00058398    0.00000000
     atom    6 type  1   force =     0.00009565    0.00036185    0.00000000
     atom    7 type  1   force =     0.00006676   -0.00005210    0.00000000
     atom    8 type  1   force =     0.00033871   -0.00021417    0.00000000
     atom    9 type  1   force =    -0.00194722   -0.00122841    0.00000000
     atom   10 type  1   force =    -0.00001034    0.00229453    0.00000000
     atom   11 type  1   force =    -0.00203002   -0.00109912    0.00000000
     atom   12 type  1   force =    -0.00002334    0.00002679    0.00000000
     atom   13 type  1   force =     0.00116794   -0.00066041    0.00000000
     atom   14 type  1   force =     0.00184935   -0.00107634    0.00000000
     atom   15 type  1   force =    -0.00005473    0.00125602    0.00000000
     atom   16 type  1   force =    -0.00025331   -0.00028312    0.00000000
     atom   17 type  1   force =     0.00194194   -0.00112489    0.00000000
     atom   18 type  1   force =     0.00218474    0.00037788    0.00000000
     atom   19 type  1   force =     0.00000835   -0.00001040    0.00000000
     atom   20 type  1   force =     0.00007358   -0.00002623    0.00000000
     atom   21 type  1   force =    -0.00008450    0.00233961    0.00000000
     atom   22 type  1   force =    -0.00001937   -0.00000917    0.00000000
     atom   23 type  1   force =    -0.00014105   -0.00012197    0.00000000
     atom   24 type  1   force =     0.00139893    0.00167117    0.00000000
     atom   25 type  1   force =     0.01275533   -0.00738777    0.00000000
     atom   26 type  1   force =     0.00192944   -0.00111826    0.00000000
     atom   27 type  1   force =     0.00076169   -0.00206770    0.00000000
     atom   28 type  1   force =     0.00009909    0.00230326    0.00000000
     atom   29 type  1   force =    -0.00196571   -0.00112742    0.00000000
     atom   30 type  1   force =     0.00002499    0.01472186    0.00000000
     atom   31 type  1   force =    -0.00137314    0.00175848    0.00000000

     Total force =     0.027054     Total SCF correction =     0.000447


     Computing stress (Cartesian axis) and pressure

          total   stress  (Ry/bohr**3)                   (kbar)     P=   -0.62
  -0.00000633  -0.00000002   0.00000000         -0.93     -0.00      0.00
  -0.00000002  -0.00000634   0.00000000         -0.00     -0.93      0.00
   0.00000000   0.00000000   0.00000004          0.00      0.00      0.01


     number of scf cycles    =   4
     number of bfgs steps    =   3

     enthalpy old            =    -140.9384652793 Ry
     enthalpy new            =    -140.9403465128 Ry

     CASE: enthalpy_new < enthalpy_old

     new trust radius        =       0.0511588379 bohr
     new conv_thr            =       0.0000010000 Ry

     new unit-cell volume =  37039.67777 a.u.^3 (  5488.71389 Ang^3 )
     density =      0.28119 g/cm^3

CELL_PARAMETERS (alat= 33.68096681)
   0.998779288   0.000000638   0.000000000
  -0.499389091   0.864967019   0.000000000
   0.000000000   0.000000000   1.122132950

ATOMIC_POSITIONS (angstrom)
Al      -0.056362654   2.536789905   0.000000000
Al       2.230337166   1.278512669   0.000000000
Al      -2.225068472   6.419994243   0.000000000
Al      -0.002689842   5.146593306   0.000000000
Al      -4.453000242  10.276296269   0.000000000
Al      -2.225018853   8.997483076   0.000000000
Al      -6.678841781  14.133770638   0.000000000
Al      -4.446357236  12.844806085   0.000000000
Al       4.436462403   2.555766285   0.000000000
Al       6.675556023   1.294949743   0.000000000
Al       2.206259873   6.418351400   0.000000000
Al       4.456107495   5.142152111   0.000000000
Al       0.002928271  10.276130734   0.000000000
Al       2.233669670   8.988140080   0.000000000
Al      -2.225176512  14.134908704   0.000000000
Al      -0.003758766  12.844756416   0.000000000
Al       8.914786570   2.555955267   0.000000000
Al      11.120780481   1.278720514   0.000000000
Al       6.675627425   6.423583400   0.000000000
Al       8.895260990   5.142111305   0.000000000
Al       4.445471881  10.296878811   0.000000000
Al       6.675651175   8.986455611   0.000000000
Al       2.228503331  14.133643852   0.000000000
Al       4.442420691  12.845748579   0.000000000
Al      13.407495976   2.536913526   0.000000000
Al      11.144717491   6.418258871   0.000000000
Al      13.353802769   5.146525138   0.000000000
Al       8.905734821  10.296769187   0.000000000
Al      11.117231651   8.988041012   0.000000000
Al       6.675664905  14.197075715   0.000000000
Al       8.908824451  12.845891924   0.000000000



     Writing output data file 26al_planar_2x2_vcr.save/
     NEW-OLD atomic charge density approx. for the potential

     negative rho (up, down):  1.155E-06 0.000E+00
     extrapolated charge   92.90406, renormalised to   93.00000

     total cpu time spent up to now is     1431.2 secs

     Self-consistent Calculation

     iteration #  1     ecut=    80.00 Ry     beta= 0.40
     Davidson diagonalization with overlap
     ethr =  1.00E-06,  avg # of iterations =  6.0

     negative rho (up, down):  5.974E-07 0.000E+00

     total cpu time spent up to now is     1470.2 secs

     total energy              =    -140.94268701 Ry
     Harris-Foulkes estimate   =    -141.41834383 Ry
     estimated scf accuracy    <       0.00046367 Ry

     iteration #  2     ecut=    80.00 Ry     beta= 0.40
     Davidson diagonalization with overlap
     ethr =  4.99E-07,  avg # of iterations =  7.0

     negative rho (up, down):  5.412E-07 0.000E+00

     total cpu time spent up to now is     1503.6 secs

     total energy              =    -140.94259514 Ry
     Harris-Foulkes estimate   =    -140.94337345 Ry
     estimated scf accuracy    <       0.00614367 Ry

     iteration #  3     ecut=    80.00 Ry     beta= 0.40
     Davidson diagonalization with overlap
     ethr =  4.99E-07,  avg # of iterations =  4.0

     negative rho (up, down):  3.677E-07 0.000E+00

     total cpu time spent up to now is     1530.4 secs

     total energy              =    -140.94295445 Ry
     Harris-Foulkes estimate   =    -140.94298294 Ry
     estimated scf accuracy    <       0.00012186 Ry

     iteration #  4     ecut=    80.00 Ry     beta= 0.40
     Davidson diagonalization with overlap
     ethr =  1.31E-07,  avg # of iterations =  4.0

     negative rho (up, down):  2.859E-07 0.000E+00

     total cpu time spent up to now is     1553.2 secs

     total energy              =    -140.94295109 Ry
     Harris-Foulkes estimate   =    -140.94297200 Ry
     estimated scf accuracy    <       0.00009328 Ry

     iteration #  5     ecut=    80.00 Ry     beta= 0.40
     Davidson diagonalization with overlap
     ethr =  1.00E-07,  avg # of iterations =  3.0

     negative rho (up, down):  1.327E-07 0.000E+00

     total cpu time spent up to now is     1575.6 secs

     total energy              =    -140.94295388 Ry
     Harris-Foulkes estimate   =    -140.94297378 Ry
     estimated scf accuracy    <       0.00012708 Ry

     iteration #  6     ecut=    80.00 Ry     beta= 0.40
     Davidson diagonalization with overlap
     ethr =  1.00E-07,  avg # of iterations =  2.0

     negative rho (up, down):  4.678E-08 0.000E+00

     total cpu time spent up to now is     1595.7 secs

     total energy              =    -140.94296206 Ry
     Harris-Foulkes estimate   =    -140.94296535 Ry
     estimated scf accuracy    <       0.00001420 Ry

     iteration #  7     ecut=    80.00 Ry     beta= 0.40
     Davidson diagonalization with overlap
     ethr =  1.53E-08,  avg # of iterations = 20.0

     negative rho (up, down):  3.719E-08 0.000E+00

     total cpu time spent up to now is     1625.8 secs

     total energy              =    -140.94292661 Ry
     Harris-Foulkes estimate   =    -140.94293148 Ry
     estimated scf accuracy    <       0.00006077 Ry

     iteration #  8     ecut=    80.00 Ry     beta= 0.40
     Davidson diagonalization with overlap
     ethr =  1.53E-08,  avg # of iterations =  2.0

     negative rho (up, down):  3.763E-08 0.000E+00

     total cpu time spent up to now is     1647.2 secs

     total energy              =    -140.94292860 Ry
     Harris-Foulkes estimate   =    -140.94292773 Ry
     estimated scf accuracy    <       0.00002524 Ry

     iteration #  9     ecut=    80.00 Ry     beta= 0.40
     Davidson diagonalization with overlap
     ethr =  1.53E-08,  avg # of iterations =  1.0

     negative rho (up, down):  2.826E-08 0.000E+00

     total cpu time spent up to now is     1668.2 secs

     total energy              =    -140.94292687 Ry
     Harris-Foulkes estimate   =    -140.94292873 Ry
     estimated scf accuracy    <       0.00002808 Ry

     iteration # 10     ecut=    80.00 Ry     beta= 0.40
     Davidson diagonalization with overlap
     ethr =  1.53E-08,  avg # of iterations =  1.0

     negative rho (up, down):  1.904E-08 0.000E+00

     total cpu time spent up to now is     1688.9 secs

     total energy              =    -140.94292418 Ry
     Harris-Foulkes estimate   =    -140.94292734 Ry
     estimated scf accuracy    <       0.00002267 Ry

     iteration # 11     ecut=    80.00 Ry     beta= 0.40
     Davidson diagonalization with overlap
     ethr =  1.53E-08,  avg # of iterations =  3.0

     total cpu time spent up to now is     1711.2 secs

     total energy              =    -140.94292388 Ry
     Harris-Foulkes estimate   =    -140.94292530 Ry
     estimated scf accuracy    <       0.00000625 Ry

     iteration # 12     ecut=    80.00 Ry     beta= 0.40
     Davidson diagonalization with overlap
     ethr =  6.72E-09,  avg # of iterations =  4.0

     total cpu time spent up to now is     1737.2 secs

     total energy              =    -140.94292497 Ry
     Harris-Foulkes estimate   =    -140.94292530 Ry
     estimated scf accuracy    <       0.00000134 Ry

     iteration # 13     ecut=    80.00 Ry     beta= 0.40
     Davidson diagonalization with overlap
     ethr =  1.44E-09,  avg # of iterations =  3.0

     total cpu time spent up to now is     1759.9 secs

     End of self-consistent calculation

          k = 0.0000 0.0000 0.0000 (448403 PWs)   bands (ev):

    -9.9570  -9.4518  -9.4443  -9.4435  -9.4164  -9.4159  -9.1344  -8.4032
    -8.4030  -8.3975  -8.3676  -8.3655  -8.3139  -8.2347  -8.2343  -7.5798
    -6.9328  -6.9326  -6.8241  -6.4786  -6.4778  -6.4574  -6.3821  -6.3813
    -5.5047  -4.8252  -4.8181  -4.8178  -4.7379  -4.7376  -4.4691  -4.4617
    -4.4451  -4.4449  -4.1431  -4.1427  -3.9794  -3.4722  -3.4692  -3.4683
    -3.4549  -3.4543  -3.3869  -3.2891  -3.2653  -3.2651  -3.2153  -2.9605
    -2.9515  -2.9509  -2.9350  -2.5014  -2.5012  -2.4428  -2.4428  -2.4278

     the Fermi energy is    -3.0895 ev

!    total energy              =    -140.94292464 Ry
     Harris-Foulkes estimate   =    -140.94292521 Ry
     estimated scf accuracy    <       0.00000077 Ry

     The total energy is the sum of the following terms:

     one-electron contribution =    -502.78757753 Ry
     hartree contribution      =     260.13343004 Ry
     xc contribution           =     -61.32321686 Ry
     ewald contribution        =     163.11259422 Ry
     smearing contrib. (-TS)   =      -0.07815451 Ry

     convergence has been achieved in  13 iterations

     Forces acting on atoms (cartesian axes, Ry/au):

     atom    1 type  1   force =    -0.01276032   -0.00737123    0.00000000
     atom    2 type  1   force =    -0.00491150    0.00195666    0.00000000
     atom    3 type  1   force =     0.00005257    0.00097483    0.00000000
     atom    4 type  1   force =    -0.00097028   -0.00526751    0.00000000
     atom    5 type  1   force =    -0.00154150   -0.00077694    0.00000000
     atom    6 type  1   force =     0.00012470   -0.00018782    0.00000000
     atom    7 type  1   force =     0.00113187   -0.00062433    0.00000000
     atom    8 type  1   force =    -0.00033150    0.00021340    0.00000000
     atom    9 type  1   force =    -0.00091575    0.00024325    0.00000000
     atom   10 type  1   force =     0.00006000    0.00230706    0.00000000
     atom   11 type  1   force =    -0.00000434   -0.00071654    0.00000000
     atom   12 type  1   force =    -0.00105232   -0.00047314    0.00000000
     atom   13 type  1   force =     0.00129054   -0.00075446    0.00000000
     atom   14 type  1   force =     0.00228531   -0.00131655    0.00000000
     atom   15 type  1   force =    -0.00011379    0.00173947    0.00000000
     atom   16 type  1   force =     0.00023601    0.00000710    0.00000000
     atom   17 type  1   force =     0.00075858    0.00025453    0.00000000
     atom   18 type  1   force =     0.00509301    0.00191013    0.00000000
     atom   19 type  1   force =     0.00001409   -0.00002416    0.00000000
     atom   20 type  1   force =     0.00093853   -0.00052681    0.00000000
     atom   21 type  1   force =     0.00059641    0.00034706    0.00000000
     atom   22 type  1   force =    -0.00010105    0.00115363    0.00000000
     atom   23 type  1   force =    -0.00087045   -0.00052763    0.00000000
     atom   24 type  1   force =     0.00408108    0.00345373    0.00000000
     atom   25 type  1   force =     0.01266210   -0.00728152    0.00000000
     atom   26 type  1   force =     0.00014670   -0.00079569    0.00000000
     atom   27 type  1   force =     0.00090136   -0.00539162    0.00000000
     atom   28 type  1   force =    -0.00066561    0.00064617    0.00000000
     atom   29 type  1   force =    -0.00199385   -0.00121847    0.00000000
     atom   30 type  1   force =     0.00003375    0.01475928    0.00000000
     atom   31 type  1   force =    -0.00417434    0.00328811    0.00000000

     Total force =     0.029310     Total SCF correction =     0.000690


     Computing stress (Cartesian axis) and pressure

          total   stress  (Ry/bohr**3)                   (kbar)     P=   -0.66
  -0.00000667  -0.00000003   0.00000000         -0.98     -0.01      0.00
  -0.00000003  -0.00000670   0.00000000         -0.01     -0.99      0.00
   0.00000000   0.00000000   0.00000001          0.00      0.00      0.00


     number of scf cycles    =   5
     number of bfgs steps    =   4

     enthalpy old            =    -140.9403465128 Ry
     enthalpy new            =    -140.9429246422 Ry

     CASE: enthalpy_new < enthalpy_old

     new trust radius        =       0.0766986787 bohr
     new conv_thr            =       0.0000010000 Ry

     new unit-cell volume =  36981.87820 a.u.^3 (  5480.14888 Ang^3 )
     density =      0.28163 g/cm^3

CELL_PARAMETERS (alat= 33.68096681)
   0.998000729  -0.000000057   0.000000000
  -0.499000414   0.864291330   0.000000000
   0.000000000   0.000000000   1.122132950

ATOMIC_POSITIONS (angstrom)
Al      -0.091416407   2.514501639   0.000000000
Al       2.228727434   1.275353845   0.000000000
Al      -2.223256458   6.413584027   0.000000000
Al      -0.004651626   5.143829973   0.000000000
Al      -4.451676475  10.267132666   0.000000000
Al      -2.223177006   8.992637031   0.000000000
Al      -6.674713071  14.123349961   0.000000000
Al      -4.441083648  12.833695997   0.000000000
Al       4.425487521   2.546936749   0.000000000
Al       6.670395995   1.300236271   0.000000000
Al       2.194979838   6.410362109   0.000000000
Al       4.454994729   5.139575087   0.000000000
Al       0.004977037  10.266923330   0.000000000
Al       2.237431361   8.977909872   0.000000000
Al      -2.223529465  14.126301249   0.000000000
Al      -0.005614009  12.833489599   0.000000000
Al       8.915271955   2.547168279   0.000000000
Al      11.112097400   1.275569881   0.000000000
Al       6.670448306   6.418514346   0.000000000
Al       8.885920514   5.139481362   0.000000000
Al       4.439780266  10.298611903   0.000000000
Al       6.670380102   8.976647565   0.000000000
Al       2.228011102  14.123230752   0.000000000
Al       4.436904115  12.836766903   0.000000000
Al      13.432050840   2.514703892   0.000000000
Al      11.145621213   6.410166312   0.000000000
Al      13.345245077   5.143600440   0.000000000
Al       8.900948093  10.298657090   0.000000000
Al      11.103136734   8.977818608   0.000000000
Al       6.670479869  14.226530447   0.000000000
Al       8.903808134  12.836814434   0.000000000



     Writing output data file 26al_planar_2x2_vcr.save/
     NEW-OLD atomic charge density approx. for the potential

     negative rho (up, down):  1.735E-06 0.000E+00
     extrapolated charge   92.85477, renormalised to   93.00000

     total cpu time spent up to now is     1834.4 secs

     Self-consistent Calculation

     iteration #  1     ecut=    80.00 Ry     beta= 0.40
     Davidson diagonalization with overlap
     ethr =  1.00E-06,  avg # of iterations =  8.0

     negative rho (up, down):  9.133E-07 0.000E+00

     total cpu time spent up to now is     1877.3 secs

     total energy              =    -140.94595704 Ry
     Harris-Foulkes estimate   =    -141.66693738 Ry
     estimated scf accuracy    <       0.00106609 Ry

     iteration #  2     ecut=    80.00 Ry     beta= 0.40
     Davidson diagonalization with overlap
     ethr =  1.15E-06,  avg # of iterations =  6.0

     negative rho (up, down):  8.278E-07 0.000E+00

     total cpu time spent up to now is     1911.3 secs

     total energy              =    -140.94572450 Ry
     Harris-Foulkes estimate   =    -140.94767323 Ry
     estimated scf accuracy    <       0.01546689 Ry

     iteration #  3     ecut=    80.00 Ry     beta= 0.40
     Davidson diagonalization with overlap
     ethr =  1.15E-06,  avg # of iterations =  5.0

     negative rho (up, down):  5.759E-07 0.000E+00

     total cpu time spent up to now is     1938.0 secs

     total energy              =    -140.94660831 Ry
     Harris-Foulkes estimate   =    -140.94666580 Ry
     estimated scf accuracy    <       0.00024949 Ry

     iteration #  4     ecut=    80.00 Ry     beta= 0.40
     Davidson diagonalization with overlap
     ethr =  2.68E-07,  avg # of iterations =  4.0

     negative rho (up, down):  4.524E-07 0.000E+00

     total cpu time spent up to now is     1960.4 secs

     total energy              =    -140.94660306 Ry
     Harris-Foulkes estimate   =    -140.94664448 Ry
     estimated scf accuracy    <       0.00020919 Ry

     iteration #  5     ecut=    80.00 Ry     beta= 0.40
     Davidson diagonalization with overlap
     ethr =  2.25E-07,  avg # of iterations =  1.0

     negative rho (up, down):  2.255E-07 0.000E+00

     total cpu time spent up to now is     1980.8 secs

     total energy              =    -140.94660743 Ry
     Harris-Foulkes estimate   =    -140.94664246 Ry
     estimated scf accuracy    <       0.00020997 Ry

     iteration #  6     ecut=    80.00 Ry     beta= 0.40
     Davidson diagonalization with overlap
     ethr =  2.25E-07,  avg # of iterations =  1.0

     negative rho (up, down):  7.565E-08 0.000E+00

     total cpu time spent up to now is     2001.0 secs

     total energy              =    -140.94661979 Ry
     Harris-Foulkes estimate   =    -140.94662970 Ry
     estimated scf accuracy    <       0.00004201 Ry

     iteration #  7     ecut=    80.00 Ry     beta= 0.40
     Davidson diagonalization with overlap
     ethr =  4.52E-08,  avg # of iterations =  4.0

     negative rho (up, down):  4.292E-08 0.000E+00

     total cpu time spent up to now is     2023.8 secs

     total energy              =    -140.94662260 Ry
     Harris-Foulkes estimate   =    -140.94663311 Ry
     estimated scf accuracy    <       0.00007257 Ry

     iteration #  8     ecut=    80.00 Ry     beta= 0.40
     Davidson diagonalization with overlap
     ethr =  4.52E-08,  avg # of iterations =  3.0

     negative rho (up, down):  2.786E-08 0.000E+00

     total cpu time spent up to now is     2044.8 secs

     total energy              =    -140.94662776 Ry
     Harris-Foulkes estimate   =    -140.94662847 Ry
     estimated scf accuracy    <       0.00000312 Ry

     iteration #  9     ecut=    80.00 Ry     beta= 0.40
     Davidson diagonalization with overlap
     ethr =  3.36E-09,  avg # of iterations =  5.0

     negative rho (up, down):  1.406E-08 0.000E+00

     total cpu time spent up to now is     2074.7 secs

     total energy              =    -140.94662780 Ry
     Harris-Foulkes estimate   =    -140.94662880 Ry
     estimated scf accuracy    <       0.00000621 Ry

     iteration # 10     ecut=    80.00 Ry     beta= 0.40
     Davidson diagonalization with overlap
     ethr =  3.36E-09,  avg # of iterations =  3.0

     total cpu time spent up to now is     2097.5 secs

     total energy              =    -140.94662793 Ry
     Harris-Foulkes estimate   =    -140.94662844 Ry
     estimated scf accuracy    <       0.00000404 Ry

     iteration # 11     ecut=    80.00 Ry     beta= 0.40
     Davidson diagonalization with overlap
     ethr =  3.36E-09,  avg # of iterations =  1.0

     total cpu time spent up to now is     2117.1 secs

     End of self-consistent calculation

          k = 0.0000 0.0000 0.0000 (448403 PWs)   bands (ev):

    -9.9595  -9.4539  -9.4510  -9.4501  -9.4106  -9.4101  -9.1294  -8.4058
    -8.4020  -8.4019  -8.3600  -8.3581  -8.3187  -8.2183  -8.2180  -7.5777
    -6.9336  -6.9332  -6.8253  -6.4776  -6.4769  -6.4426  -6.3859  -6.3849
    -5.5294  -4.8176  -4.8053  -4.8051  -4.7356  -4.7354  -4.4639  -4.4572
    -4.4459  -4.4458  -4.1557  -4.1551  -3.9803  -3.4728  -3.4725  -3.4713
    -3.4497  -3.4492  -3.3773  -3.3411  -3.2591  -3.2589  -3.2128  -2.9660
    -2.9427  -2.9421  -2.9152  -2.4907  -2.4904  -2.4406  -2.4404  -2.4174

     the Fermi energy is    -3.0880 ev

!    total energy              =    -140.94662759 Ry
     Harris-Foulkes estimate   =    -140.94662814 Ry
     estimated scf accuracy    <       0.00000070 Ry

     The total energy is the sum of the following terms:

     one-electron contribution =    -503.28055415 Ry
     hartree contribution      =     260.37676095 Ry
     xc contribution           =     -61.31714163 Ry
     ewald contribution        =     163.34997871 Ry
     smearing contrib. (-TS)   =      -0.07567148 Ry

     convergence has been achieved in  11 iterations

     Forces acting on atoms (cartesian axes, Ry/au):

     atom    1 type  1   force =    -0.01303210   -0.00753043    0.00000000
     atom    2 type  1   force =    -0.00874130    0.00372614    0.00000000
     atom    3 type  1   force =    -0.00001747    0.00180517    0.00000000
     atom    4 type  1   force =    -0.00125528   -0.00947509    0.00000000
     atom    5 type  1   force =    -0.00216934   -0.00114644    0.00000000
     atom    6 type  1   force =     0.00008665   -0.00081271    0.00000000
     atom    7 type  1   force =     0.00184977   -0.00104030    0.00000000
     atom    8 type  1   force =    -0.00086253    0.00053500    0.00000000
     atom    9 type  1   force =     0.00059854    0.00234545    0.00000000
     atom   10 type  1   force =     0.00003839    0.00212699    0.00000000
     atom   11 type  1   force =     0.00250907   -0.00049016    0.00000000
     atom   12 type  1   force =    -0.00240141   -0.00128272    0.00000000
     atom   13 type  1   force =     0.00194395   -0.00114282    0.00000000
     atom   14 type  1   force =     0.00212565   -0.00121407    0.00000000
     atom   15 type  1   force =    -0.00011313    0.00244344    0.00000000
     atom   16 type  1   force =     0.00076639    0.00037875    0.00000000
     atom   17 type  1   force =    -0.00067800    0.00232103    0.00000000
     atom   18 type  1   force =     0.00886581    0.00369787    0.00000000
     atom   19 type  1   force =    -0.00000447    0.00000869    0.00000000
     atom   20 type  1   force =     0.00231922   -0.00131684    0.00000000
     atom   21 type  1   force =     0.00166885   -0.00196847    0.00000000
     atom   22 type  1   force =    -0.00007266    0.00272697    0.00000000
     atom   23 type  1   force =    -0.00163195   -0.00090703    0.00000000
     atom   24 type  1   force =     0.00757626    0.00583003    0.00000000
     atom   25 type  1   force =     0.01293936   -0.00742756    0.00000000
     atom   26 type  1   force =    -0.00235502   -0.00056791    0.00000000
     atom   27 type  1   force =     0.00123253   -0.00955061    0.00000000
     atom   28 type  1   force =    -0.00174272   -0.00173990    0.00000000
     atom   29 type  1   force =    -0.00185417   -0.00112025    0.00000000
     atom   30 type  1   force =     0.00003410    0.01506341    0.00000000
     atom   31 type  1   force =    -0.00762300    0.00572438    0.00000000

     Total force =     0.036466     Total SCF correction =     0.000642


     Computing stress (Cartesian axis) and pressure

          total   stress  (Ry/bohr**3)                   (kbar)     P=   -0.70
  -0.00000716  -0.00000003   0.00000000         -1.05     -0.00      0.00
  -0.00000003  -0.00000718   0.00000000         -0.00     -1.06      0.00
   0.00000000   0.00000000  -0.00000001          0.00      0.00     -0.00


     number of scf cycles    =   6
     number of bfgs steps    =   5

     enthalpy old            =    -140.9429246422 Ry
     enthalpy new            =    -140.9466275948 Ry

     CASE: enthalpy_new < enthalpy_old

     new trust radius        =       0.1149580993 bohr
     new conv_thr            =       0.0000010000 Ry

     new unit-cell volume =  36894.97191 a.u.^3 (  5467.27070 Ang^3 )
     density =      0.28229 g/cm^3

CELL_PARAMETERS (alat= 33.68096681)
   0.996828667  -0.000000537   0.000000000
  -0.498414798   0.863274349   0.000000000
   0.000000000   0.000000000   1.122132950

ATOMIC_POSITIONS (angstrom)
Al      -0.143900299   2.481112829   0.000000000
Al       2.224925414   1.271181208   0.000000000
Al      -2.220572869   6.404174276   0.000000000
Al      -0.007695975   5.138192664   0.000000000
Al      -4.449882051  10.253201992   0.000000000
Al      -2.220441437   8.985126557   0.000000000
Al      -6.668330056  14.107569442   0.000000000
Al      -4.433294318  12.817070881   0.000000000
Al       4.409640393   2.534488907   0.000000000
Al       6.662604720   1.308009152   0.000000000
Al       2.178984426   6.398450907   0.000000000
Al       4.452843033   5.135380744   0.000000000
Al       0.008333295  10.252909479   0.000000000
Al       2.242879668   8.962648891   0.000000000
Al      -2.221023849  14.113578557   0.000000000
Al      -0.008228731  12.816693665   0.000000000
Al       8.915408534   2.534764533   0.000000000
Al      11.100341320   1.271439709   0.000000000
Al       6.662641388   6.410914193   0.000000000
Al       8.872384089   5.135230166   0.000000000
Al       4.431622174  10.300308843   0.000000000
Al       6.662485628   8.962465031   0.000000000
Al       2.227053317  14.107471206   0.000000000
Al       4.429837487  12.824097552   0.000000000
Al      13.468748442   2.481438221   0.000000000
Al      11.145986484   6.398111461   0.000000000
Al      13.332490891   5.137772330   0.000000000
Al       8.893349043  10.300497691   0.000000000
Al      11.082077571   8.962553806   0.000000000
Al       6.662678045  14.270545042   0.000000000
Al       8.895073539  12.824066357   0.000000000



     Writing output data file 26al_planar_2x2_vcr.save/
     NEW-OLD atomic charge density approx. for the potential

     negative rho (up, down):  2.661E-06 0.000E+00
     extrapolated charge   92.78112, renormalised to   93.00000

     total cpu time spent up to now is     2192.4 secs

     Self-consistent Calculation

     iteration #  1     ecut=    80.00 Ry     beta= 0.40
     Davidson diagonalization with overlap
     ethr =  1.00E-06,  avg # of iterations = 12.0

     negative rho (up, down):  1.426E-06 0.000E+00

     total cpu time spent up to now is     2240.6 secs

     total energy              =    -140.95081392 Ry
     Harris-Foulkes estimate   =    -142.03908386 Ry
     estimated scf accuracy    <       0.00172422 Ry

     iteration #  2     ecut=    80.00 Ry     beta= 0.40
     Davidson diagonalization with overlap
     ethr =  1.85E-06,  avg # of iterations =  7.0

     negative rho (up, down):  1.284E-06 0.000E+00

     total cpu time spent up to now is     2274.3 secs

     total energy              =    -140.95083504 Ry
     Harris-Foulkes estimate   =    -140.95334564 Ry
     estimated scf accuracy    <       0.01868450 Ry

     iteration #  3     ecut=    80.00 Ry     beta= 0.40
     Davidson diagonalization with overlap
     ethr =  1.85E-06,  avg # of iterations =  5.0

     negative rho (up, down):  9.148E-07 0.000E+00

     total cpu time spent up to now is     2299.7 secs

     total energy              =    -140.95195557 Ry
     Harris-Foulkes estimate   =    -140.95208065 Ry
     estimated scf accuracy    <       0.00056681 Ry

     iteration #  4     ecut=    80.00 Ry     beta= 0.40
     Davidson diagonalization with overlap
     ethr =  6.09E-07,  avg # of iterations =  2.0

     negative rho (up, down):  6.416E-07 0.000E+00

     total cpu time spent up to now is     2319.0 secs

     total energy              =    -140.95195687 Ry
     Harris-Foulkes estimate   =    -140.95201387 Ry
     estimated scf accuracy    <       0.00030661 Ry

     iteration #  5     ecut=    80.00 Ry     beta= 0.40
     Davidson diagonalization with overlap
     ethr =  3.30E-07,  avg # of iterations =  4.0

     negative rho (up, down):  3.462E-07 0.000E+00

     total cpu time spent up to now is     2340.3 secs

     total energy              =    -140.95192884 Ry
     Harris-Foulkes estimate   =    -140.95202723 Ry
     estimated scf accuracy    <       0.00058045 Ry

     iteration #  6     ecut=    80.00 Ry     beta= 0.40
     Davidson diagonalization with overlap
     ethr =  3.30E-07,  avg # of iterations =  3.0

     negative rho (up, down):  7.923E-08 0.000E+00

     total cpu time spent up to now is     2361.8 secs

     total energy              =    -140.95197342 Ry
     Harris-Foulkes estimate   =    -140.95198962 Ry
     estimated scf accuracy    <       0.00008584 Ry

     iteration #  7     ecut=    80.00 Ry     beta= 0.40
     Davidson diagonalization with overlap
     ethr =  9.23E-08,  avg # of iterations =  3.0

     negative rho (up, down):  5.454E-08 0.000E+00

     total cpu time spent up to now is     2384.0 secs

     total energy              =    -140.95198229 Ry
     Harris-Foulkes estimate   =    -140.95198844 Ry
     estimated scf accuracy    <       0.00003443 Ry

     iteration #  8     ecut=    80.00 Ry     beta= 0.40
     Davidson diagonalization with overlap
     ethr =  3.70E-08,  avg # of iterations =  4.0

     negative rho (up, down):  2.843E-08 0.000E+00

     total cpu time spent up to now is     2407.2 secs

     total energy              =    -140.95198628 Ry
     Harris-Foulkes estimate   =    -140.95198836 Ry
     estimated scf accuracy    <       0.00001112 Ry

     iteration #  9     ecut=    80.00 Ry     beta= 0.40
     Davidson diagonalization with overlap
     ethr =  1.20E-08,  avg # of iterations =  3.0

     negative rho (up, down):  1.539E-08 0.000E+00

     total cpu time spent up to now is     2430.3 secs

     total energy              =    -140.95198650 Ry
     Harris-Foulkes estimate   =    -140.95198777 Ry
     estimated scf accuracy    <       0.00000688 Ry

     iteration # 10     ecut=    80.00 Ry     beta= 0.40
     Davidson diagonalization with overlap
     ethr =  7.40E-09,  avg # of iterations =  2.0

     total cpu time spent up to now is     2451.3 secs

     total energy              =    -140.95198680 Ry
     Harris-Foulkes estimate   =    -140.95198748 Ry
     estimated scf accuracy    <       0.00000424 Ry

     iteration # 11     ecut=    80.00 Ry     beta= 0.40
     Davidson diagonalization with overlap
     ethr =  4.55E-09,  avg # of iterations =  3.0

     total cpu time spent up to now is     2472.3 secs

     End of self-consistent calculation

          k = 0.0000 0.0000 0.0000 (448403 PWs)   bands (ev):

    -9.9637  -9.4605  -9.4598  -9.4564  -9.4036  -9.4032  -9.1241  -8.4176
    -8.4011  -8.4009  -8.3522  -8.3505  -8.3255  -8.1912  -8.1911  -7.5785
    -6.9353  -6.9348  -6.8284  -6.4758  -6.4753  -6.4221  -6.3898  -6.3885
    -5.5673  -4.8069  -4.7903  -4.7899  -4.7286  -4.7284  -4.4563  -4.4504
    -4.4474  -4.4473  -4.1749  -4.1744  -3.9818  -3.4773  -3.4763  -3.4724
    -3.4426  -3.4422  -3.4226  -3.3622  -3.2504  -3.2503  -3.2109  -2.9748
    -2.9294  -2.9287  -2.8829  -2.4759  -2.4757  -2.4377  -2.4372  -2.4044

     the Fermi energy is    -3.0856 ev

!    total energy              =    -140.95198637 Ry
     Harris-Foulkes estimate   =    -140.95198717 Ry
     estimated scf accuracy    <       0.00000091 Ry

     The total energy is the sum of the following terms:

     one-electron contribution =    -504.04361146 Ry
     hartree contribution      =     260.75325906 Ry
     xc contribution           =     -61.31004237 Ry
     ewald contribution        =     163.71971832 Ry
     smearing contrib. (-TS)   =      -0.07130991 Ry

     convergence has been achieved in  11 iterations

     Forces acting on atoms (cartesian axes, Ry/au):

     atom    1 type  1   force =    -0.01344107   -0.00776780    0.00000000
     atom    2 type  1   force =    -0.01410563    0.00606292    0.00000000
     atom    3 type  1   force =    -0.00004635    0.00294347    0.00000000
     atom    4 type  1   force =    -0.00186570   -0.01529084    0.00000000
     atom    5 type  1   force =    -0.00298368   -0.00162930    0.00000000
     atom    6 type  1   force =     0.00006017   -0.00163177    0.00000000
     atom    7 type  1   force =     0.00278275   -0.00157795    0.00000000
     atom    8 type  1   force =    -0.00155330    0.00094542    0.00000000
     atom    9 type  1   force =     0.00272829    0.00525349    0.00000000
     atom   10 type  1   force =     0.00001599    0.00189794    0.00000000
     atom   11 type  1   force =     0.00602746   -0.00011638    0.00000000
     atom   12 type  1   force =    -0.00423456   -0.00239756    0.00000000
     atom   13 type  1   force =     0.00280171   -0.00165447    0.00000000
     atom   14 type  1   force =     0.00190562   -0.00107126    0.00000000
     atom   15 type  1   force =    -0.00011753    0.00338900    0.00000000
     atom   16 type  1   force =     0.00146642    0.00082314    0.00000000
     atom   17 type  1   force =    -0.00274975    0.00518944    0.00000000
     atom   18 type  1   force =     0.01417225    0.00600222    0.00000000
     atom   19 type  1   force =     0.00000141    0.00000403    0.00000000
     atom   20 type  1   force =     0.00415788   -0.00240270    0.00000000
     atom   21 type  1   force =     0.00311395   -0.00520253    0.00000000
     atom   22 type  1   force =    -0.00004581    0.00488069    0.00000000
     atom   23 type  1   force =    -0.00260280   -0.00142085    0.00000000
     atom   24 type  1   force =     0.01231825    0.00926768    0.00000000
     atom   25 type  1   force =     0.01337036   -0.00769920    0.00000000
     atom   26 type  1   force =    -0.00589266   -0.00018889    0.00000000
     atom   27 type  1   force =     0.00189445   -0.01532061    0.00000000
     atom   28 type  1   force =    -0.00318613   -0.00503679    0.00000000
     atom   29 type  1   force =    -0.00167024   -0.00097141    0.00000000
     atom   30 type  1   force =     0.00002563    0.01551166    0.00000000
     atom   31 type  1   force =    -0.01234736    0.00920921    0.00000000

     Total force =     0.050085     Total SCF correction =     0.000792


     Computing stress (Cartesian axis) and pressure

          total   stress  (Ry/bohr**3)                   (kbar)     P=   -0.77
  -0.00000784  -0.00000002   0.00000000         -1.15     -0.00      0.00
  -0.00000002  -0.00000785   0.00000000         -0.00     -1.15      0.00
   0.00000000   0.00000000  -0.00000000          0.00      0.00     -0.00


     number of scf cycles    =   7
     number of bfgs steps    =   6

     enthalpy old            =    -140.9466275948 Ry
[...]


     bfgs converged in 187 scf cycles and 186 bfgs steps
     (criteria: energy <  1.0E-05 Ry, force <  1.0E-04Ry/Bohr, cell <  5.0E-05kbar)

     End of BFGS Geometry Optimization

     Final enthalpy =    -142.2701674718 Ry
Begin final coordinates
     new unit-cell volume =  26092.73944 a.u.^3 (  3866.54501 Ang^3 )
     density =      0.39916 g/cm^3

CELL_PARAMETERS (alat= 33.68096681)
   0.838290994   0.000041710   0.000000000
  -0.419186209   0.725962916   0.000000000
   0.000000000   0.000000000   1.122132950

ATOMIC_POSITIONS (angstrom)
Al       0.301195422   0.382737407   0.000000000
Al       1.988028541   2.469738244   0.000000000
Al      -1.626782971   5.391382125   0.000000000
Al      -0.662842781   2.887108666   0.000000000
Al      -5.241804173   8.312887832   0.000000000
Al      -2.590840490   7.895626977   0.000000000
Al      -4.519291978  12.904304826   0.000000000
Al      -3.555110683  10.399881999   0.000000000
Al       4.638795556   2.052402496   0.000000000
Al       6.325674995   4.139570801   0.000000000
Al       1.024134476   4.974122274   0.000000000
Al       3.674912418   4.556852118   0.000000000
Al       0.060069442   7.478468612   0.000000000
Al       2.710896314   7.061252999   0.000000000
Al      -1.868456884  12.487055717   0.000000000
Al      -0.904178320   9.982719638   0.000000000
Al       7.289586987   1.635201138   0.000000000
Al       9.940418506   1.218048062   0.000000000
Al       5.361676828   6.643983798   0.000000000
Al       8.976473241   3.722328298   0.000000000
Al       1.746736619   9.565618665   0.000000000
Al       4.397546717   9.148457666   0.000000000
Al       0.782378886  12.069912536   0.000000000
Al       3.433311086  11.652786858   0.000000000
Al      12.591356269   0.800871704   0.000000000
Al      10.663324187   5.809388261   0.000000000
Al      11.627296327   3.305118060   0.000000000
Al       7.048336342   8.731036241   0.000000000
Al       8.012478181   6.226654975   0.000000000
Al       6.084207386  11.235532975   0.000000000
Al       8.735077190  10.818001029   0.000000000
End final coordinates



     Writing output data file 26al_planar_2x2_vcr.save/

     A final scf calculation at the relaxed structure.
     The G-vectors are recalculated for the final unit cell
     Results may differ from those at the preceding step.
 
     Parallelization info
     --------------------
     sticks:   dense  smooth     PW     G-vecs:    dense   smooth      PW
     Min        2198    2198    550               315304   315304   39396
     Max        2199    2199    551               315313   315313   39401
     Sum       17587   17587   4405              2522465  2522465  315191
 


     bravais-lattice index     =            4
     lattice parameter (alat)  =      33.6810  a.u.
     unit-cell volume          =   26092.7394 (a.u.)^3
     number of atoms/cell      =           31
     number of atomic types    =            1
     number of electrons       =        93.00
     number of Kohn-Sham states=           56
     kinetic-energy cutoff     =      80.0000  Ry
     charge density cutoff     =     320.0000  Ry
     convergence threshold     =      1.0E-08
     mixing beta               =       0.4000
     number of iterations used =            8  plain     mixing
     Exchange-correlation      = PBE ( 1  4  3  4 0 0)

     celldm(1)=  33.680967  celldm(2)=   0.000000  celldm(3)=   1.122133
     celldm(4)=   0.000000  celldm(5)=   0.000000  celldm(6)=   0.000000

     crystal axes: (cart. coord. in units of alat)
               a(1) = (   0.838291   0.000042   0.000000 )  
               a(2) = (  -0.419186   0.725963   0.000000 )  
               a(3) = (   0.000000   0.000000   1.122133 )  

     reciprocal axes: (cart. coord. in units 2 pi/alat)
               b(1) = (  1.192869  0.688788  0.000000 )  
               b(2) = ( -0.000069  1.377441  0.000000 )  
               b(3) = (  0.000000  0.000000  0.891160 )  


     PseudoPot. # 1 for Al read from file:
     ./Al.upf
     MD5 check sum: 4974d48a734c9d7d1eb6780a1419d19d
     Pseudo is Norm-conserving + core correction, Zval =  3.0
     Generated using ONCVPSP code by D. R. Hamann
     Using radial grid of 1876 points,  6 beta functions with: 
                l(1) =   0
                l(2) =   0
                l(3) =   1
                l(4) =   1
                l(5) =   2
                l(6) =   2

     atomic species   valence    mass     pseudopotential
        Al             3.00    29.98200     Al( 1.00)

      2 Sym. Ops. (no inversion) found



   Cartesian axes

     site n.     atom                  positions (alat units)
         1           Al  tau(   1) = (   0.0168991   0.0214741   0.0000000  )
         2           Al  tau(   2) = (   0.1115416   0.1385687   0.0000000  )
         3           Al  tau(   3) = (  -0.0912733   0.3024924   0.0000000  )
         4           Al  tau(   4) = (  -0.0371899   0.1619860   0.0000000  )
         5           Al  tau(   5) = (  -0.2941001   0.4664083   0.0000000  )
         6           Al  tau(   6) = (  -0.1453634   0.4429972   0.0000000  )
         7           Al  tau(   7) = (  -0.2535623   0.7240173   0.0000000  )
         8           Al  tau(   8) = (  -0.1994653   0.5835025   0.0000000  )
         9           Al  tau(   9) = (   0.2602673   0.1151534   0.0000000  )
        10           Al  tau(  10) = (   0.3549124   0.2322574   0.0000000  )
        11           Al  tau(  11) = (   0.0574608   0.2790813   0.0000000  )
        12           Al  tau(  12) = (   0.2061870   0.2556697   0.0000000  )
        13           Al  tau(  13) = (   0.0033703   0.4195918   0.0000000  )
        14           Al  tau(  14) = (   0.1520993   0.3961832   0.0000000  )
        15           Al  tau(  15) = (  -0.1048329   0.7006068   0.0000000  )
        16           Al  tau(  16) = (  -0.0507304   0.5600969   0.0000000  )
        17           Al  tau(  17) = (   0.4089943   0.0917457   0.0000000  )
        18           Al  tau(  18) = (   0.5577236   0.0683406   0.0000000  )
        19           Al  tau(  19) = (   0.3008257   0.3727717   0.0000000  )
        20           Al  tau(  20) = (   0.5036398   0.2088474   0.0000000  )
        21           Al  tau(  21) = (   0.0980035   0.5366948   0.0000000  )
        22           Al  tau(  22) = (   0.2467316   0.5132893   0.0000000  )
        23           Al  tau(  23) = (   0.0438967   0.6772023   0.0000000  )
        24           Al  tau(  24) = (   0.1926316   0.6537988   0.0000000  )
        25           Al  tau(  25) = (   0.7064588   0.0449342   0.0000000  )
        26           Al  tau(  26) = (   0.5982834   0.3259453   0.0000000  )
        27           Al  tau(  27) = (   0.6523686   0.1854391   0.0000000  )
        28           Al  tau(  28) = (   0.3954585   0.4898692   0.0000000  )
        29           Al  tau(  29) = (   0.4495533   0.3493567   0.0000000  )
        30           Al  tau(  30) = (   0.3413645   0.6303881   0.0000000  )
        31           Al  tau(  31) = (   0.4900959   0.6069618   0.0000000  )

     number of k points=     1  Methfessel-Paxton smearing, width (Ry)=  0.0500
                       cart. coord. in units 2pi/alat
        k(    1) = (   0.0000000   0.0000000   0.0000000), wk =   2.0000000

     Dense  grid:  2522465 G-vectors     FFT dimensions: ( 162, 162, 216)

     Estimated max dynamical RAM per process >     839.96 MB

     Estimated total dynamical RAM >       6.56 GB

     Initial potential from superposition of free atoms

     starting charge   92.92414, renormalised to   93.00000

     negative rho (up, down):  7.270E-05 0.000E+00
     Starting wfcs are  124 randomized atomic wfcs

     total cpu time spent up to now is    66379.4 secs

     Self-consistent Calculation

     iteration #  1     ecut=    80.00 Ry     beta= 0.40
     Davidson diagonalization with overlap
     ethr =  1.00E-06,  avg # of iterations =  9.0

     negative rho (up, down):  1.173E-05 0.000E+00

     total cpu time spent up to now is    66423.8 secs

     total energy              =    -142.21848274 Ry
     Harris-Foulkes estimate   =    -142.58378875 Ry
     estimated scf accuracy    <       1.01218782 Ry

     iteration #  2     ecut=    80.00 Ry     beta= 0.40
     Davidson diagonalization with overlap
     ethr =  1.09E-03,  avg # of iterations =  1.0

     negative rho (up, down):  3.417E-06 0.000E+00

     total cpu time spent up to now is    66438.7 secs

     total energy              =    -142.25980772 Ry
     Harris-Foulkes estimate   =    -142.29576941 Ry
     estimated scf accuracy    <       0.10990726 Ry

     iteration #  3     ecut=    80.00 Ry     beta= 0.40
     Davidson diagonalization with overlap
     ethr =  1.18E-04,  avg # of iterations =  1.0

     negative rho (up, down):  2.306E-07 0.000E+00

     total cpu time spent up to now is    66453.7 secs

     total energy              =    -142.26912713 Ry
     Harris-Foulkes estimate   =    -142.27101356 Ry
     estimated scf accuracy    <       0.00856042 Ry

     iteration #  4     ecut=    80.00 Ry     beta= 0.40
     Davidson diagonalization with overlap
     ethr =  9.20E-06,  avg # of iterations =  2.0

     negative rho (up, down):  6.576E-08 0.000E+00

     total cpu time spent up to now is    66469.9 secs

     total energy              =    -142.26976434 Ry
     Harris-Foulkes estimate   =    -142.26981007 Ry
     estimated scf accuracy    <       0.00012146 Ry

     iteration #  5     ecut=    80.00 Ry     beta= 0.40
     Davidson diagonalization with overlap
     ethr =  1.31E-07,  avg # of iterations =  5.0

     negative rho (up, down):  4.317E-08 0.000E+00

     total cpu time spent up to now is    66494.7 secs

     total energy              =    -142.26987544 Ry
     Harris-Foulkes estimate   =    -142.26989546 Ry
     estimated scf accuracy    <       0.00010009 Ry

     iteration #  6     ecut=    80.00 Ry     beta= 0.40
     Davidson diagonalization with overlap
     ethr =  1.08E-07,  avg # of iterations =  3.0

     negative rho (up, down):  3.886E-08 0.000E+00

     total cpu time spent up to now is    66511.1 secs

     total energy              =    -142.26988345 Ry
     Harris-Foulkes estimate   =    -142.26988433 Ry
     estimated scf accuracy    <       0.00001500 Ry

     iteration #  7     ecut=    80.00 Ry     beta= 0.40
     Davidson diagonalization with overlap
     ethr =  1.61E-08,  avg # of iterations =  4.0

     total cpu time spent up to now is    66530.3 secs

     total energy              =    -142.26988291 Ry
     Harris-Foulkes estimate   =    -142.26988443 Ry
     estimated scf accuracy    <       0.00001065 Ry

     iteration #  8     ecut=    80.00 Ry     beta= 0.40
     Davidson diagonalization with overlap
     ethr =  1.15E-08,  avg # of iterations =  6.0

     total cpu time spent up to now is    66552.5 secs

     total energy              =    -142.26988516 Ry
     Harris-Foulkes estimate   =    -142.26988930 Ry
     estimated scf accuracy    <       0.00003185 Ry

     iteration #  9     ecut=    80.00 Ry     beta= 0.40
     Davidson diagonalization with overlap
     ethr =  1.15E-08,  avg # of iterations =  4.0

     total cpu time spent up to now is    66569.4 secs

     total energy              =    -142.26988287 Ry
     Harris-Foulkes estimate   =    -142.26988594 Ry
     estimated scf accuracy    <       0.00001423 Ry

     iteration # 10     ecut=    80.00 Ry     beta= 0.40
     Davidson diagonalization with overlap
     ethr =  1.15E-08,  avg # of iterations =  5.0

     total cpu time spent up to now is    66586.2 secs

     total energy              =    -142.26988345 Ry
     Harris-Foulkes estimate   =    -142.26988374 Ry
     estimated scf accuracy    <       0.00000146 Ry

     iteration # 11     ecut=    80.00 Ry     beta= 0.40
     Davidson diagonalization with overlap
     ethr =  1.57E-09,  avg # of iterations =  6.0

     total cpu time spent up to now is    66606.9 secs

     total energy              =    -142.26988387 Ry
     Harris-Foulkes estimate   =    -142.26988390 Ry
     estimated scf accuracy    <       0.00000043 Ry

     iteration # 12     ecut=    80.00 Ry     beta= 0.40
     Davidson diagonalization with overlap
     ethr =  4.60E-10,  avg # of iterations =  3.0

     total cpu time spent up to now is    66622.4 secs

     total energy              =    -142.26988385 Ry
     Harris-Foulkes estimate   =    -142.26988390 Ry
     estimated scf accuracy    <       0.00000040 Ry

     iteration # 13     ecut=    80.00 Ry     beta= 0.40
     Davidson diagonalization with overlap
     ethr =  4.26E-10,  avg # of iterations =  1.0

     total cpu time spent up to now is    66637.6 secs

     total energy              =    -142.26988384 Ry
     Harris-Foulkes estimate   =    -142.26988386 Ry
     estimated scf accuracy    <       0.00000019 Ry

     iteration # 14     ecut=    80.00 Ry     beta= 0.40
     Davidson diagonalization with overlap
     ethr =  2.01E-10,  avg # of iterations =  4.0

     total cpu time spent up to now is    66654.5 secs

     total energy              =    -142.26988385 Ry
     Harris-Foulkes estimate   =    -142.26988385 Ry
     estimated scf accuracy    <       0.00000002 Ry

     iteration # 15     ecut=    80.00 Ry     beta= 0.40
     Davidson diagonalization with overlap
     ethr =  1.71E-11,  avg # of iterations =  5.0

     total cpu time spent up to now is    66674.8 secs

     End of self-consistent calculation

          k = 0.0000 0.0000 0.0000 (315191 PWs)   bands (ev):

   -11.6237 -10.7478 -10.7478 -10.7477 -10.7477 -10.7477 -10.7477  -9.0217
    -9.0216  -9.0216  -9.0216  -9.0216  -9.0216  -8.1738  -8.1738  -8.1738
    -8.1737  -8.1737  -8.1737  -5.7782  -5.7782  -5.7781  -5.7781  -5.7781
    -5.7780  -5.7076  -5.7076  -5.7076  -5.7075  -5.7075  -5.7075  -4.8692
    -4.0234  -4.0234  -4.0233  -4.0233  -4.0233  -4.0233  -3.7523  -3.7523
    -3.7523  -3.7521  -3.7521  -3.7520  -2.3346  -2.3345  -2.3345  -2.3345
    -2.3345  -2.3345  -1.8112  -1.8112  -1.8112  -1.8111  -1.8110  -1.8110

     the Fermi energy is    -2.4051 ev

!    total energy              =    -142.26988385 Ry
     Harris-Foulkes estimate   =    -142.26988386 Ry
     estimated scf accuracy    <          1.2E-09 Ry

     The total energy is the sum of the following terms:

     one-electron contribution =    -702.58373107 Ry
     hartree contribution      =     360.19493596 Ry
     xc contribution           =     -63.84998549 Ry
     ewald contribution        =     264.01556155 Ry
     smearing contrib. (-TS)   =      -0.04666481 Ry

     convergence has been achieved in  15 iterations

     Forces acting on atoms (cartesian axes, Ry/au):

     atom    1 type  1   force =    -0.00000125   -0.00000211    0.00000000
     atom    2 type  1   force =    -0.00000048    0.00000616    0.00000000
     atom    3 type  1   force =     0.00000104    0.00000045    0.00000000
     atom    4 type  1   force =     0.00001081   -0.00000023    0.00000000
     atom    5 type  1   force =    -0.00000152    0.00001018    0.00000000
     atom    6 type  1   force =    -0.00000858    0.00000500    0.00000000
     atom    7 type  1   force =     0.00001385   -0.00000030    0.00000000
     atom    8 type  1   force =     0.00000582    0.00001663    0.00000000
     atom    9 type  1   force =     0.00000109    0.00001190    0.00000000
     atom   10 type  1   force =    -0.00000652   -0.00000238    0.00000000
     atom   11 type  1   force =    -0.00001352    0.00000054    0.00000000
     atom   12 type  1   force =    -0.00000475   -0.00000404    0.00000000
     atom   13 type  1   force =    -0.00000783   -0.00000552    0.00000000
     atom   14 type  1   force =    -0.00000364    0.00000122    0.00000000
     atom   15 type  1   force =     0.00000407   -0.00000659    0.00000000
     atom   16 type  1   force =    -0.00000477    0.00000778    0.00000000
     atom   17 type  1   force =     0.00000244    0.00000739    0.00000000
     atom   18 type  1   force =     0.00001027   -0.00000302    0.00000000
     atom   19 type  1   force =    -0.00000652    0.00000001    0.00000000
     atom   20 type  1   force =    -0.00000512    0.00000035    0.00000000
     atom   21 type  1   force =    -0.00000912   -0.00000002    0.00000000
     atom   22 type  1   force =     0.00000066   -0.00001199    0.00000000
     atom   23 type  1   force =     0.00001777   -0.00000718    0.00000000
     atom   24 type  1   force =     0.00000587   -0.00000547    0.00000000
     atom   25 type  1   force =    -0.00000419   -0.00000988    0.00000000
     atom   26 type  1   force =     0.00000278   -0.00000421    0.00000000
     atom   27 type  1   force =     0.00000724   -0.00000144    0.00000000
     atom   28 type  1   force =     0.00000321    0.00000749    0.00000000
     atom   29 type  1   force =    -0.00000692   -0.00000035    0.00000000
     atom   30 type  1   force =     0.00000392   -0.00001756    0.00000000
     atom   31 type  1   force =    -0.00000610    0.00000720    0.00000000

     Total force =     0.000056     Total SCF correction =     0.000035
     SCF correction compared to forces is large: reduce conv_thr to get better values


     Computing stress (Cartesian axis) and pressure

          total   stress  (Ry/bohr**3)                   (kbar)     P=    0.00
   0.00000005   0.00000001   0.00000000          0.01      0.00      0.00
   0.00000001   0.00000004   0.00000000          0.00      0.01      0.00
   0.00000000   0.00000000  -0.00000002          0.00      0.00     -0.00


     Writing output data file 26al_planar_2x2_vcr.save/
 
     init_run     :     38.98s CPU     45.19s WALL (       2 calls)
     electrons    :  43553.97s CPU  52752.12s WALL (     188 calls)
     update_pot   :   3024.95s CPU   3077.15s WALL (     186 calls)
     forces       :   2464.69s CPU   2570.84s WALL (     188 calls)
     stress       :   7907.49s CPU   8158.22s WALL (     188 calls)

     Called by init_run:
     wfcinit      :     19.78s CPU     25.20s WALL (       2 calls)
     potinit      :      7.38s CPU      7.85s WALL (       2 calls)
     hinit0       :      8.67s CPU      8.85s WALL (       2 calls)

     Called by electrons:
     c_bands      :  36273.08s CPU  43576.90s WALL (    1846 calls)
     sum_band     :   4919.72s CPU   6212.27s WALL (    1846 calls)
     v_of_rho     :   2029.53s CPU   2432.77s WALL (    1993 calls)
     mix_rho      :    429.18s CPU    607.62s WALL (    1846 calls)

     Called by c_bands:
     init_us_2    :    682.95s CPU    717.28s WALL (    3694 calls)
     cegterg      :  31212.67s CPU  38473.22s WALL (    1846 calls)

     Called by sum_band:

     Called by *egterg:
     h_psi        :  27502.91s CPU  34519.68s WALL (   11830 calls)
     g_psi        :     96.90s CPU    100.09s WALL (    9982 calls)
     cdiaghg      :     89.82s CPU     91.60s WALL (   11601 calls)

     Called by h_psi:
     h_psi:pot    :  27431.13s CPU  34331.68s WALL (   11830 calls)
     h_psi:calbec :   3533.99s CPU   3625.79s WALL (   11830 calls)
     vloc_psi     :  20350.78s CPU  27139.26s WALL (   11830 calls)
     add_vuspsi   :   3546.22s CPU   3566.52s WALL (   11830 calls)

     General routines
     calbec       :   4037.09s CPU   4140.70s WALL (   12770 calls)
     fft          :   1884.77s CPU   2202.28s WALL (   24857 calls)
     ffts         :    116.48s CPU    139.88s WALL (    1846 calls)
     fftw         :  21162.48s CPU  28910.25s WALL (  723408 calls)
 
     Parallel routines
     fft_scatt_xy :   4289.53s CPU   5890.99s WALL (  750111 calls)
     fft_scatt_yz :   7531.50s CPU   9039.62s WALL (  750111 calls)
 
     PWSCF        :    15h50m CPU       50h18m WALL

      31h
 
   This run was terminated on:   3:43:59  27Nov2020            

=------------------------------------------------------------------------------=
   JOB DONE.
=------------------------------------------------------------------------------=
