
     Program PWSCF v.6.3MaX starts on 25Nov2020 at 21:15:56 

     This program is part of the open-source Quantum ESPRESSO suite
     for quantum simulation of materials; please cite
         "P. Giannozzi et al., J. Phys.:Condens. Matter 21 395502 (2009);
         "P. Giannozzi et al., J. Phys.:Condens. Matter 29 465901 (2017);
          URL http://www.quantum-espresso.org", 
     in publications or presentations arising from this work. More details at
     http://www.quantum-espresso.org/quote

     Parallel version (MPI), running on     8 processors

     MPI processes distributed on     2 nodes
     R & G space division:  proc/nbgrp/npool/nimage =       8
     Waiting for input...
     Reading input from standard input

     Current dimensions of program PWSCF are:
     Max number of different atomic species (ntypx) = 10
     Max number of k-points (npk) =  40000
     Max angular momentum in pseudopotentials (lmaxx) =  3

     Subspace diagonalization in iterative solution of the eigenvalue problem:
     a serial algorithm will be used

 
     Parallelization info
     --------------------
     sticks:   dense  smooth     PW     G-vecs:    dense   smooth      PW
     Min        3123    3123    778               448599   448599   56048
     Max        3124    3124    779               448604   448604   56052
     Sum       24985   24985   6229              3588803  3588803  448403
 


     bravais-lattice index     =            4
     lattice parameter (alat)  =      33.6810  a.u.
     unit-cell volume          =   37130.3117 (a.u.)^3
     number of atoms/cell      =           31
     number of atomic types    =            1
     number of electrons       =        93.00
     number of Kohn-Sham states=           56
     kinetic-energy cutoff     =      80.0000  Ry
     charge density cutoff     =     320.0000  Ry
     convergence threshold     =      1.0E-06
     mixing beta               =       0.4000
     number of iterations used =            8  plain     mixing
     Exchange-correlation      = PBE ( 1  4  3  4 0 0)
     nstep                     =          300


     celldm(1)=  33.680967  celldm(2)=   0.000000  celldm(3)=   1.122133
     celldm(4)=   0.000000  celldm(5)=   0.000000  celldm(6)=   0.000000

     crystal axes: (cart. coord. in units of alat)
               a(1) = (   1.000000   0.000000   0.000000 )  
               a(2) = (  -0.500000   0.866025   0.000000 )  
               a(3) = (   0.000000   0.000000   1.122133 )  

     reciprocal axes: (cart. coord. in units 2 pi/alat)
               b(1) = (  1.000000  0.577350  0.000000 )  
               b(2) = (  0.000000  1.154701  0.000000 )  
               b(3) = (  0.000000  0.000000  0.891160 )  


     PseudoPot. # 1 for Al read from file:
     ./Al.upf
     MD5 check sum: 4974d48a734c9d7d1eb6780a1419d19d
     Pseudo is Norm-conserving + core correction, Zval =  3.0
     Generated using ONCVPSP code by D. R. Hamann
     Using radial grid of 1876 points,  6 beta functions with: 
                l(1) =   0
                l(2) =   0
                l(3) =   1
                l(4) =   1
                l(5) =   2
                l(6) =   2

     atomic species   valence    mass     pseudopotential
        Al             3.00    29.98200     Al( 1.00)

      2 Sym. Ops. (no inversion) found



   Cartesian axes

     site n.     atom                  positions (alat units)
         1           Al  tau(   1) = (  -0.0000000   0.1443393   0.0000000  )
         2           Al  tau(   2) = (   0.1250015   0.0721696   0.0000000  )
         3           Al  tau(   3) = (  -0.1249997   0.3608472   0.0000000  )
         4           Al  tau(   4) = (   0.0000018   0.2886775   0.0000000  )
         5           Al  tau(   5) = (  -0.2499994   0.5773550   0.0000000  )
         6           Al  tau(   6) = (  -0.1249979   0.5051854   0.0000000  )
         7           Al  tau(   7) = (  -0.2499976   0.7216932   0.0000000  )
         8           Al  tau(   8) = (   0.2500011   0.1443403   0.0000000  )
         9           Al  tau(   9) = (   0.3750027   0.0721706   0.0000000  )
        10           Al  tau(  10) = (   0.1250014   0.3608482   0.0000000  )
        11           Al  tau(  11) = (   0.2500030   0.2886785   0.0000000  )
        12           Al  tau(  12) = (   0.0000017   0.5773560   0.0000000  )
        13           Al  tau(  13) = (   0.1250033   0.5051864   0.0000000  )
        14           Al  tau(  14) = (  -0.1249980   0.7938639   0.0000000  )
        15           Al  tau(  15) = (   0.0000036   0.7216942   0.0000000  )
        16           Al  tau(  16) = (   0.5000023   0.1443413   0.0000000  )
        17           Al  tau(  17) = (   0.6250038   0.0721717   0.0000000  )
        18           Al  tau(  18) = (   0.3750026   0.3608492   0.0000000  )
        19           Al  tau(  19) = (   0.5000041   0.2886795   0.0000000  )
        20           Al  tau(  20) = (   0.2500029   0.5773571   0.0000000  )
        21           Al  tau(  21) = (   0.3750044   0.5051874   0.0000000  )
        22           Al  tau(  22) = (   0.1250032   0.7938649   0.0000000  )
        23           Al  tau(  23) = (   0.2500047   0.7216953   0.0000000  )
        24           Al  tau(  24) = (   0.7500035   0.1443423   0.0000000  )
        25           Al  tau(  25) = (   0.8750050   0.0721727   0.0000000  )
        26           Al  tau(  26) = (   0.6250038   0.3608502   0.0000000  )
        27           Al  tau(  27) = (   0.7500053   0.2886805   0.0000000  )
        28           Al  tau(  28) = (   0.5000041   0.5773581   0.0000000  )
        29           Al  tau(  29) = (   0.6250056   0.5051884   0.0000000  )
        30           Al  tau(  30) = (   0.3750044   0.7938660   0.0000000  )
        31           Al  tau(  31) = (   0.5000059   0.7216963   0.0000000  )

     number of k points=     1  Methfessel-Paxton smearing, width (Ry)=  0.0500
                       cart. coord. in units 2pi/alat
        k(    1) = (   0.0000000   0.0000000   0.0000000), wk =   2.0000000

     Dense  grid:  3588803 G-vectors     FFT dimensions: ( 192, 192, 216)

     Estimated max dynamical RAM per process >       1.15 GB

     Estimated total dynamical RAM >       9.23 GB

     Initial potential from superposition of free atoms

     starting charge   92.92414, renormalised to   93.00000

     negative rho (up, down):  9.278E-05 0.000E+00
     Starting wfcs are  124 randomized atomic wfcs

     total cpu time spent up to now is       26.3 secs

     Self-consistent Calculation

     iteration #  1     ecut=    80.00 Ry     beta= 0.40
     Davidson diagonalization with overlap
     ethr =  1.00E-02,  avg # of iterations =  2.0

     total cpu time spent up to now is       49.0 secs

     total energy              =    -140.64211971 Ry
     Harris-Foulkes estimate   =    -141.23601969 Ry
     estimated scf accuracy    <       1.54869881 Ry

     iteration #  2     ecut=    80.00 Ry     beta= 0.40
     Davidson diagonalization with overlap
     ethr =  1.67E-03,  avg # of iterations =  5.0

     total cpu time spent up to now is       72.7 secs

     total energy              =    -140.21895629 Ry
     Harris-Foulkes estimate   =    -141.45908550 Ry
     estimated scf accuracy    <       6.75532001 Ry

     iteration #  3     ecut=    80.00 Ry     beta= 0.40
     Davidson diagonalization with overlap
     ethr =  1.67E-03,  avg # of iterations =  5.0

     total cpu time spent up to now is       95.3 secs

     total energy              =    -140.82822449 Ry
     Harris-Foulkes estimate   =    -141.02320263 Ry
     estimated scf accuracy    <       1.17036043 Ry

     iteration #  4     ecut=    80.00 Ry     beta= 0.40
     Davidson diagonalization with overlap
     ethr =  1.26E-03,  avg # of iterations =  1.0

     total cpu time spent up to now is      112.4 secs

     total energy              =    -140.90050658 Ry
     Harris-Foulkes estimate   =    -140.94423256 Ry
     estimated scf accuracy    <       0.15046735 Ry

     iteration #  5     ecut=    80.00 Ry     beta= 0.40
     Davidson diagonalization with overlap
     ethr =  1.62E-04,  avg # of iterations =  4.0

     total cpu time spent up to now is      131.7 secs

     total energy              =    -140.91330340 Ry
     Harris-Foulkes estimate   =    -140.95562077 Ry
     estimated scf accuracy    <       0.30354831 Ry

     iteration #  6     ecut=    80.00 Ry     beta= 0.40
     Davidson diagonalization with overlap
     ethr =  1.62E-04,  avg # of iterations =  3.0

     total cpu time spent up to now is      149.6 secs

     total energy              =    -140.93228795 Ry
     Harris-Foulkes estimate   =    -140.93458834 Ry
     estimated scf accuracy    <       0.00993509 Ry

     iteration #  7     ecut=    80.00 Ry     beta= 0.40
     Davidson diagonalization with overlap
     ethr =  1.07E-05,  avg # of iterations = 11.0

     total cpu time spent up to now is      179.4 secs

     total energy              =    -140.93554987 Ry
     Harris-Foulkes estimate   =    -140.93693549 Ry
     estimated scf accuracy    <       0.00729327 Ry

     iteration #  8     ecut=    80.00 Ry     beta= 0.40
     Davidson diagonalization with overlap
     ethr =  7.84E-06,  avg # of iterations =  3.0

     total cpu time spent up to now is      197.5 secs

     total energy              =    -140.93573240 Ry
     Harris-Foulkes estimate   =    -140.93657448 Ry
     estimated scf accuracy    <       0.00444960 Ry

     iteration #  9     ecut=    80.00 Ry     beta= 0.40
     Davidson diagonalization with overlap
     ethr =  4.78E-06,  avg # of iterations =  1.0

     total cpu time spent up to now is      214.8 secs

     total energy              =    -140.93588933 Ry
     Harris-Foulkes estimate   =    -140.93616040 Ry
     estimated scf accuracy    <       0.00163767 Ry

     iteration # 10     ecut=    80.00 Ry     beta= 0.40
     Davidson diagonalization with overlap
     ethr =  1.76E-06,  avg # of iterations =  4.0

     total cpu time spent up to now is      233.5 secs

     total energy              =    -140.93601675 Ry
     Harris-Foulkes estimate   =    -140.93610349 Ry
     estimated scf accuracy    <       0.00041530 Ry

     iteration # 11     ecut=    80.00 Ry     beta= 0.40
     Davidson diagonalization with overlap
     ethr =  4.47E-07,  avg # of iterations =  5.0

     total cpu time spent up to now is      255.1 secs

     total energy              =    -140.93608371 Ry
     Harris-Foulkes estimate   =    -140.93613805 Ry
     estimated scf accuracy    <       0.00031682 Ry

     iteration # 12     ecut=    80.00 Ry     beta= 0.40
     Davidson diagonalization with overlap
     ethr =  3.41E-07,  avg # of iterations =  2.0

     total cpu time spent up to now is      272.8 secs

     total energy              =    -140.93610747 Ry
     Harris-Foulkes estimate   =    -140.93611898 Ry
     estimated scf accuracy    <       0.00005881 Ry

     iteration # 13     ecut=    80.00 Ry     beta= 0.40
     Davidson diagonalization with overlap
     ethr =  6.32E-08,  avg # of iterations =  5.0

     total cpu time spent up to now is      293.1 secs

     total energy              =    -140.93611542 Ry
     Harris-Foulkes estimate   =    -140.93611976 Ry
     estimated scf accuracy    <       0.00002611 Ry

     iteration # 14     ecut=    80.00 Ry     beta= 0.40
     Davidson diagonalization with overlap
     ethr =  2.81E-08,  avg # of iterations =  3.0

     total cpu time spent up to now is      310.8 secs

     total energy              =    -140.93611674 Ry
     Harris-Foulkes estimate   =    -140.93611815 Ry
     estimated scf accuracy    <       0.00000538 Ry

     iteration # 15     ecut=    80.00 Ry     beta= 0.40
     Davidson diagonalization with overlap
     ethr =  5.79E-09,  avg # of iterations =  5.0

     total cpu time spent up to now is      334.3 secs

     total energy              =    -140.93611629 Ry
     Harris-Foulkes estimate   =    -140.93611928 Ry
     estimated scf accuracy    <       0.00002100 Ry

     iteration # 16     ecut=    80.00 Ry     beta= 0.40
     Davidson diagonalization with overlap
     ethr =  5.79E-09,  avg # of iterations =  3.0

     total cpu time spent up to now is      353.5 secs

     total energy              =    -140.93611748 Ry
     Harris-Foulkes estimate   =    -140.93611790 Ry
     estimated scf accuracy    <       0.00000206 Ry

     iteration # 17     ecut=    80.00 Ry     beta= 0.40
     Davidson diagonalization with overlap
     ethr =  2.21E-09,  avg # of iterations =  3.0

     total cpu time spent up to now is      371.1 secs

     End of self-consistent calculation

          k = 0.0000 0.0000 0.0000 (448403 PWs)   bands (ev):

    -9.9529  -9.4481  -9.4332  -9.4330  -9.4258  -9.4258  -9.1460  -8.4049
    -8.4048  -8.3882  -8.3880  -8.3798  -8.3032  -8.2569  -8.2569  -7.5867
    -6.9325  -6.9324  -6.8231  -6.4866  -6.4771  -6.4771  -6.3702  -6.3701
    -5.4641  -4.8435  -4.8433  -4.8369  -4.7357  -4.7356  -4.4780  -4.4681
    -4.4427  -4.4427  -4.1226  -4.1225  -3.9778  -3.4709  -3.4689  -3.4687
    -3.4576  -3.4576  -3.4017  -3.2744  -3.2743  -3.2225  -3.2077  -2.9744
    -2.9653  -2.9652  -2.9389  -2.5198  -2.5196  -2.4498  -2.4490  -2.4315

     the Fermi energy is    -3.0911 ev

!    total energy              =    -140.93611698 Ry
     Harris-Foulkes estimate   =    -140.93611771 Ry
     estimated scf accuracy    <       0.00000081 Ry

     The total energy is the sum of the following terms:

     one-electron contribution =    -502.03387128 Ry
     hartree contribution      =     259.76121656 Ry
     xc contribution           =     -61.33558377 Ry
     ewald contribution        =     162.75312982 Ry
     smearing contrib. (-TS)   =      -0.08100832 Ry

     convergence has been achieved in  17 iterations

     Forces acting on atoms (cartesian axes, Ry/au):

     atom    1 type  1   force =    -0.00314874    0.00111486    0.00000000
     atom    2 type  1   force =     0.00000010   -0.01515744    0.00000000
     atom    3 type  1   force =     0.00203039    0.00118143    0.00000000
     atom    4 type  1   force =    -0.00155524   -0.00517985    0.00000000
     atom    5 type  1   force =    -0.00060317   -0.00326524    0.00000000
     atom    6 type  1   force =    -0.00528897    0.00123581    0.00000000
     atom    7 type  1   force =    -0.01312349    0.00754838    0.00000000
     atom    8 type  1   force =     0.00318759    0.00107878    0.00000000
     atom    9 type  1   force =    -0.00114116   -0.00062467    0.00000000
     atom   10 type  1   force =    -0.00001361    0.00213823    0.00000000
     atom   11 type  1   force =     0.00155791   -0.00518863    0.00000000
     atom   12 type  1   force =     0.00185923   -0.00108515    0.00000000
     atom   13 type  1   force =    -0.00000700   -0.00000399    0.00000000
     atom   14 type  1   force =     0.00254765    0.00217114    0.00000000
     atom   15 type  1   force =    -0.00372811    0.00396364    0.00000000
     atom   16 type  1   force =     0.00113092    0.00063304    0.00000000
     atom   17 type  1   force =    -0.00000798   -0.00048717    0.00000000
     atom   18 type  1   force =    -0.00201361    0.00113632    0.00000000
     atom   19 type  1   force =    -0.00043301    0.00026464    0.00000000
     atom   20 type  1   force =    -0.00186388   -0.00105275    0.00000000
     atom   21 type  1   force =     0.00529480    0.00126693    0.00000000
     atom   22 type  1   force =    -0.00001884   -0.00232486    0.00000000
     atom   23 type  1   force =     0.00374999    0.00394068    0.00000000
     atom   24 type  1   force =    -0.00114126    0.00063405    0.00000000
     atom   25 type  1   force =     0.00111391   -0.00064529    0.00000000
     atom   26 type  1   force =     0.00000374   -0.00133653    0.00000000
     atom   27 type  1   force =     0.00042666    0.00027702    0.00000000
     atom   28 type  1   force =     0.00063142   -0.00328376    0.00000000
     atom   29 type  1   force =    -0.00002612    0.00132557    0.00000000
     atom   30 type  1   force =    -0.00254674    0.00215956    0.00000000
     atom   31 type  1   force =     0.01312663    0.00756526    0.00000000

     Total force =     0.031202     Total SCF correction =     0.000743


     Computing stress (Cartesian axis) and pressure

          total   stress  (Ry/bohr**3)                   (kbar)     P=   -0.57
  -0.00000580  -0.00000000   0.00000000         -0.85     -0.00      0.00
  -0.00000000  -0.00000577   0.00000000         -0.00     -0.85      0.00
   0.00000000   0.00000000  -0.00000000          0.00      0.00     -0.00


     BFGS Geometry Optimization

     number of scf cycles    =   1
     number of bfgs steps    =   0

     enthalpy new            =    -140.9361169828 Ry

     new trust radius        =       0.0151574410 bohr
     new conv_thr            =       0.0000010000 Ry

     new unit-cell volume =  37119.56906 a.u.^3 (  5500.55256 Ang^3 )
     density =      0.28059 g/cm^3

CELL_PARAMETERS (alat= 33.68096681)
   0.999854903  -0.000000023   0.000000000
  -0.499927471   0.865900494   0.000000000
   0.000000000   0.000000000   1.122132950

ATOMIC_POSITIONS (angstrom)
Al      -0.001666644   2.572806657   0.000000000
Al       2.227603502   1.278088018   0.000000000
Al      -2.226497835   6.431148403   0.000000000
Al      -0.000790903   5.141673697   0.000000000
Al      -4.455462721  10.287102190   0.000000000
Al      -2.230337888   9.003374754   0.000000000
Al      -4.462054602  12.865021263   0.000000000
Al       4.456860182   2.572805656   0.000000000
Al       6.682173930   1.285795414   0.000000000
Al       2.227594958   6.431672737   0.000000000
Al       4.456030538   5.141687143   0.000000000
Al       0.001014409  10.288273769   0.000000000
Al       2.227631075   9.002736866   0.000000000
Al      -2.226192818  14.148303202   0.000000000
Al      -0.001909236  12.863142664   0.000000000
Al       8.910946268   2.572587907   0.000000000
Al      11.137947767   1.285886255   0.000000000
Al       6.681711028   6.431160721   0.000000000
Al       8.910151413   5.144590565   0.000000000
Al       4.454218782  10.288309005   0.000000000
Al       6.685610532   9.003427402   0.000000000
Al       2.227623523  14.145942453   0.000000000
Al       4.457221703  12.863148607   0.000000000
Al      13.364918327   2.572606536   0.000000000
Al      15.593715630   1.285820686   0.000000000
Al      11.137952681   6.429870424   0.000000000
Al      13.365780538   5.144615208   0.000000000
Al       8.910713315  10.287146670   0.000000000
Al      11.137969504   9.003476518   0.000000000
Al       6.681460282  14.148333256   0.000000000
Al       8.917357158  12.865084469   0.000000000



     Writing output data file 7al_planar_2x2_vcr.save/
     NEW-OLD atomic charge density approx. for the potential

     negative rho (up, down):  2.993E-07 0.000E+00
     extrapolated charge   92.97311, renormalised to   93.00000

     total cpu time spent up to now is      444.3 secs

     Self-consistent Calculation

     iteration #  1     ecut=    80.00 Ry     beta= 0.40
     Davidson diagonalization with overlap
     ethr =  1.00E-06,  avg # of iterations =  4.0

     negative rho (up, down):  1.477E-07 0.000E+00

     total cpu time spent up to now is      468.0 secs

     total energy              =    -140.93699405 Ry
     Harris-Foulkes estimate   =    -141.07021623 Ry
     estimated scf accuracy    <       0.00021854 Ry

     iteration #  2     ecut=    80.00 Ry     beta= 0.40
     Davidson diagonalization with overlap
     ethr =  2.35E-07,  avg # of iterations =  5.0

     negative rho (up, down):  1.342E-07 0.000E+00

     total cpu time spent up to now is      492.5 secs

     total energy              =    -140.93682918 Ry
     Harris-Foulkes estimate   =    -140.93744331 Ry
     estimated scf accuracy    <       0.00513640 Ry

     iteration #  3     ecut=    80.00 Ry     beta= 0.40
     Davidson diagonalization with overlap
     ethr =  2.35E-07,  avg # of iterations =  5.0

     negative rho (up, down):  8.992E-08 0.000E+00

     total cpu time spent up to now is      515.6 secs

     total energy              =    -140.93711598 Ry
     Harris-Foulkes estimate   =    -140.93712005 Ry
     estimated scf accuracy    <       0.00001722 Ry

     iteration #  4     ecut=    80.00 Ry     beta= 0.40
     Davidson diagonalization with overlap
     ethr =  1.85E-08,  avg # of iterations =  5.0

     negative rho (up, down):  6.825E-08 0.000E+00

     total cpu time spent up to now is      537.7 secs

     total energy              =    -140.93711674 Ry
     Harris-Foulkes estimate   =    -140.93712217 Ry
     estimated scf accuracy    <       0.00002999 Ry

     iteration #  5     ecut=    80.00 Ry     beta= 0.40
     Davidson diagonalization with overlap
     ethr =  1.85E-08,  avg # of iterations =  3.0

     negative rho (up, down):  2.921E-08 0.000E+00

     total cpu time spent up to now is      555.7 secs

     total energy              =    -140.93711945 Ry
     Harris-Foulkes estimate   =    -140.93712034 Ry
     estimated scf accuracy    <       0.00000613 Ry

     iteration #  6     ecut=    80.00 Ry     beta= 0.40
     Davidson diagonalization with overlap
     ethr =  6.59E-09,  avg # of iterations =  5.0

     negative rho (up, down):  1.469E-08 0.000E+00

     total cpu time spent up to now is      573.9 secs

     total energy              =    -140.93711986 Ry
     Harris-Foulkes estimate   =    -140.93712034 Ry
     estimated scf accuracy    <       0.00000197 Ry

     iteration #  7     ecut=    80.00 Ry     beta= 0.40
     Davidson diagonalization with overlap
     ethr =  2.12E-09,  avg # of iterations =  5.0

     total cpu time spent up to now is      593.5 secs

     total energy              =    -140.93711996 Ry
     Harris-Foulkes estimate   =    -140.93712054 Ry
     estimated scf accuracy    <       0.00000400 Ry

     iteration #  8     ecut=    80.00 Ry     beta= 0.40
     Davidson diagonalization with overlap
     ethr =  2.12E-09,  avg # of iterations =  4.0

     total cpu time spent up to now is      611.2 secs

     End of self-consistent calculation

          k = 0.0000 0.0000 0.0000 (448403 PWs)   bands (ev):

    -9.9533  -9.4484  -9.4335  -9.4335  -9.4255  -9.4254  -9.1439  -8.4041
    -8.4040  -8.3845  -8.3845  -8.3829  -8.3050  -8.2545  -8.2544  -7.5853
    -6.9323  -6.9323  -6.8229  -6.4824  -6.4775  -6.4775  -6.3722  -6.3722
    -5.4694  -4.8396  -4.8395  -4.8351  -4.7365  -4.7365  -4.4766  -4.4672
    -4.4431  -4.4431  -4.1253  -4.1252  -3.9779  -3.4710  -3.4677  -3.4676
    -3.4583  -3.4582  -3.4000  -3.2732  -3.2731  -3.2211  -3.2177  -2.9704
    -2.9635  -2.9634  -2.9412  -2.5170  -2.5169  -2.4463  -2.4458  -2.4337

     the Fermi energy is    -3.0908 ev

!    total energy              =    -140.93712004 Ry
     Harris-Foulkes estimate   =    -140.93712021 Ry
     estimated scf accuracy    <       0.00000027 Ry

     The total energy is the sum of the following terms:

     one-electron contribution =    -502.12384116 Ry
     hartree contribution      =     259.80657358 Ry
     xc contribution           =     -61.33387206 Ry
     ewald contribution        =     162.79470479 Ry
     smearing contrib. (-TS)   =      -0.08068519 Ry

     convergence has been achieved in   8 iterations

     Forces acting on atoms (cartesian axes, Ry/au):

     atom    1 type  1   force =    -0.00206713    0.00039798    0.00000000
     atom    2 type  1   force =     0.00000632   -0.01499270    0.00000000
     atom    3 type  1   force =     0.00197737    0.00114868    0.00000000
     atom    4 type  1   force =    -0.00115378   -0.00442656    0.00000000
     atom    5 type  1   force =    -0.00068045   -0.00197790    0.00000000
     atom    6 type  1   force =    -0.00442619    0.00120757    0.00000000
     atom    7 type  1   force =    -0.01298280    0.00747999    0.00000000
     atom    8 type  1   force =     0.00209195    0.00037860    0.00000000
     atom    9 type  1   force =    -0.00082661   -0.00044119    0.00000000
     atom   10 type  1   force =    -0.00000617    0.00158081    0.00000000
     atom   11 type  1   force =     0.00117039   -0.00442348    0.00000000
     atom   12 type  1   force =     0.00137451   -0.00079392    0.00000000
     atom   13 type  1   force =     0.00000411    0.00000094    0.00000000
     atom   14 type  1   force =     0.00138799    0.00158444    0.00000000
     atom   15 type  1   force =    -0.00326303    0.00322988    0.00000000
     atom   16 type  1   force =     0.00092236    0.00052002    0.00000000
     atom   17 type  1   force =     0.00000104   -0.00072776    0.00000000
     atom   18 type  1   force =    -0.00197243    0.00112134    0.00000000
     atom   19 type  1   force =    -0.00065042    0.00038563    0.00000000
     atom   20 type  1   force =    -0.00138339   -0.00078584    0.00000000
     atom   21 type  1   force =     0.00442627    0.00121817    0.00000000
     atom   22 type  1   force =    -0.00001455   -0.00227727    0.00000000
     atom   23 type  1   force =     0.00328268    0.00321000    0.00000000
     atom   24 type  1   force =    -0.00092538    0.00051424    0.00000000
     atom   25 type  1   force =     0.00079713   -0.00047109    0.00000000
     atom   26 type  1   force =     0.00000587   -0.00108103    0.00000000
     atom   27 type  1   force =     0.00063022    0.00038550    0.00000000
     atom   28 type  1   force =     0.00071601   -0.00198799    0.00000000
     atom   29 type  1   force =    -0.00003729    0.00095622    0.00000000
     atom   30 type  1   force =    -0.00137570    0.00158413    0.00000000
     atom   31 type  1   force =     0.01297110    0.00748260    0.00000000

     Total force =     0.029277     Total SCF correction =     0.000386


     Computing stress (Cartesian axis) and pressure

          total   stress  (Ry/bohr**3)                   (kbar)     P=   -0.58
  -0.00000594   0.00000000   0.00000000         -0.87      0.00      0.00
   0.00000000  -0.00000591   0.00000000          0.00     -0.87      0.00
   0.00000000   0.00000000   0.00000001          0.00      0.00      0.00


     number of scf cycles    =   2
     number of bfgs steps    =   1

     enthalpy old            =    -140.9361169828 Ry
     enthalpy new            =    -140.9371200429 Ry

     CASE: enthalpy_new < enthalpy_old


     WARNING: bfgs curvature condition failed, Theta= 0.854
     new trust radius        =       0.0227328818 bohr
     new conv_thr            =       0.0000010000 Ry

     new unit-cell volume =  37103.11956 a.u.^3 (  5498.11499 Ang^3 )
     density =      0.28071 g/cm^3

CELL_PARAMETERS (alat= 33.68096681)
   0.999632767   0.000000058   0.000000000
  -0.499816333   0.865709063   0.000000000
   0.000000000   0.000000000   1.122132950

ATOMIC_POSITIONS (angstrom)
Al      -0.003653014   2.572778429   0.000000000
Al       2.227111821   1.265778639   0.000000000
Al      -2.224406715   6.430654458   0.000000000
Al      -0.001836558   5.136767524   0.000000000
Al      -4.454991569  10.282848529   0.000000000
Al      -2.233645041   9.002357913   0.000000000
Al      -4.471476328  12.868173467   0.000000000
Al       4.457881351   2.572757125   0.000000000
Al       6.679931542   1.285102381   0.000000000
Al       2.227093338   6.431687090   0.000000000
Al       4.456096148   5.136780107   0.000000000
Al       0.002263418  10.285275173   0.000000000
Al       2.227136725   9.000746390   0.000000000
Al      -2.224228396  14.146623573   0.000000000
Al      -0.004658599  12.863107277   0.000000000
Al       8.909768257   2.572470476   0.000000000
Al      11.135471405   1.285096297   0.000000000
Al       6.678638760   6.430640138   0.000000000
Al       8.907720224   5.143724654   0.000000000
Al       4.451975844  10.285324766   0.000000000
Al       6.687931170   9.002426104   0.000000000
Al       2.227116806  14.140982133   0.000000000
Al       4.458999701  12.863096741   0.000000000
Al      13.361143084   2.572486951   0.000000000
Al      15.590986379   1.285107361   0.000000000
Al      11.135482733   6.427507304   0.000000000
Al      13.363251721   5.143753428   0.000000000
Al       8.909280144  10.282883401   0.000000000
Al      11.135469414   9.002365848   0.000000000
Al       6.678514609  14.146650592   0.000000000
Al       8.925786400  12.868244252   0.000000000



     Writing output data file 7al_planar_2x2_vcr.save/
     NEW-OLD atomic charge density approx. for the potential

     negative rho (up, down):  4.813E-07 0.000E+00
     extrapolated charge   92.95880, renormalised to   93.00000

     total cpu time spent up to now is      683.1 secs

     Self-consistent Calculation

     iteration #  1     ecut=    80.00 Ry     beta= 0.40
     Davidson diagonalization with overlap
     ethr =  1.00E-06,  avg # of iterations =  4.0

     negative rho (up, down):  2.409E-07 0.000E+00

     total cpu time spent up to now is      708.7 secs

     total energy              =    -140.93842962 Ry
     Harris-Foulkes estimate   =    -141.14241743 Ry
     estimated scf accuracy    <       0.00010023 Ry

     iteration #  2     ecut=    80.00 Ry     beta= 0.40
     Davidson diagonalization with overlap
     ethr =  1.08E-07,  avg # of iterations =  5.0

     negative rho (up, down):  2.165E-07 0.000E+00

     total cpu time spent up to now is      734.8 secs

     total energy              =    -140.93842207 Ry
     Harris-Foulkes estimate   =    -140.93855860 Ry
     estimated scf accuracy    <       0.00102796 Ry

     iteration #  3     ecut=    80.00 Ry     beta= 0.40
     Davidson diagonalization with overlap
     ethr =  1.08E-07,  avg # of iterations =  4.0

     negative rho (up, down):  1.358E-07 0.000E+00

     total cpu time spent up to now is      755.4 secs

     total energy              =    -140.93848549 Ry
     Harris-Foulkes estimate   =    -140.93849151 Ry
     estimated scf accuracy    <       0.00002580 Ry

     iteration #  4     ecut=    80.00 Ry     beta= 0.40
     Davidson diagonalization with overlap
     ethr =  2.77E-08,  avg # of iterations =  3.0

     negative rho (up, down):  8.031E-08 0.000E+00

     total cpu time spent up to now is      772.9 secs

     total energy              =    -140.93848612 Ry
     Harris-Foulkes estimate   =    -140.93848876 Ry
     estimated scf accuracy    <       0.00001069 Ry

     iteration #  5     ecut=    80.00 Ry     beta= 0.40
     Davidson diagonalization with overlap
     ethr =  1.15E-08,  avg # of iterations =  4.0

     negative rho (up, down):  4.376E-08 0.000E+00

     total cpu time spent up to now is      794.1 secs

     total energy              =    -140.93848436 Ry
     Harris-Foulkes estimate   =    -140.93849092 Ry
     estimated scf accuracy    <       0.00004413 Ry

     iteration #  6     ecut=    80.00 Ry     beta= 0.40
     Davidson diagonalization with overlap
     ethr =  1.15E-08,  avg # of iterations =  4.0

     negative rho (up, down):  1.757E-08 0.000E+00

     total cpu time spent up to now is      813.7 secs

     total energy              =    -140.93848790 Ry
     Harris-Foulkes estimate   =    -140.93848843 Ry
     estimated scf accuracy    <       0.00000406 Ry

     iteration #  7     ecut=    80.00 Ry     beta= 0.40
     Davidson diagonalization with overlap
     ethr =  4.37E-09,  avg # of iterations =  4.0

     negative rho (up, down):  1.275E-08 0.000E+00

     total cpu time spent up to now is      832.0 secs

     total energy              =    -140.93848811 Ry
     Harris-Foulkes estimate   =    -140.93848837 Ry
     estimated scf accuracy    <       0.00000163 Ry

     iteration #  8     ecut=    80.00 Ry     beta= 0.40
     Davidson diagonalization with overlap
     ethr =  1.75E-09,  avg # of iterations =  3.0

     total cpu time spent up to now is      851.4 secs

     End of self-consistent calculation

          k = 0.0000 0.0000 0.0000 (448403 PWs)   bands (ev):

    -9.9540  -9.4490  -9.4356  -9.4354  -9.4237  -9.4237  -9.1415  -8.4033
    -8.4032  -8.3871  -8.3799  -8.3798  -8.3070  -8.2507  -8.2507  -7.5838
    -6.9323  -6.9323  -6.8226  -6.4779  -6.4778  -6.4767  -6.3750  -6.3749
    -5.4773  -4.8344  -4.8343  -4.8326  -4.7375  -4.7375  -4.4747  -4.4661
    -4.4435  -4.4435  -4.1292  -4.1291  -3.9782  -3.4710  -3.4670  -3.4668
    -3.4586  -3.4585  -3.3974  -3.2714  -3.2712  -3.2328  -3.2197  -2.9653
    -2.9610  -2.9609  -2.9436  -2.5133  -2.5131  -2.4416  -2.4412  -2.4367

     the Fermi energy is    -3.0905 ev

!    total energy              =    -140.93848814 Ry
     Harris-Foulkes estimate   =    -140.93848830 Ry
     estimated scf accuracy    <       0.00000030 Ry

     The total energy is the sum of the following terms:

     one-electron contribution =    -502.26044503 Ry
     hartree contribution      =     259.87460224 Ry
     xc contribution           =     -61.33150809 Ry
     ewald contribution        =     162.85902018 Ry
     smearing contrib. (-TS)   =      -0.08015744 Ry

     convergence has been achieved in   8 iterations

     Forces acting on atoms (cartesian axes, Ry/au):

     atom    1 type  1   force =    -0.00059196   -0.00055924    0.00000000
     atom    2 type  1   force =     0.00000067   -0.01482782    0.00000000
     atom    3 type  1   force =     0.00191413    0.00110879    0.00000000
     atom    4 type  1   force =    -0.00062844   -0.00344041    0.00000000
     atom    5 type  1   force =    -0.00077252   -0.00022023    0.00000000
     atom    6 type  1   force =    -0.00331251    0.00117099    0.00000000
     atom    7 type  1   force =    -0.01283830    0.00739922    0.00000000
     atom    8 type  1   force =     0.00061044   -0.00058709    0.00000000
     atom    9 type  1   force =    -0.00041897   -0.00021931    0.00000000
     atom   10 type  1   force =    -0.00002009    0.00085702    0.00000000
     atom   11 type  1   force =     0.00066098   -0.00343271    0.00000000
     atom   12 type  1   force =     0.00074077   -0.00043684    0.00000000
     atom   13 type  1   force =    -0.00000425   -0.00000605    0.00000000
     atom   14 type  1   force =    -0.00019733    0.00079659    0.00000000
     atom   15 type  1   force =    -0.00265231    0.00228657    0.00000000
     atom   16 type  1   force =     0.00064003    0.00035662    0.00000000
     atom   17 type  1   force =     0.00000133   -0.00102582    0.00000000
     atom   18 type  1   force =    -0.00192013    0.00110255    0.00000000
     atom   19 type  1   force =    -0.00090115    0.00053090    0.00000000
     atom   20 type  1   force =    -0.00074481   -0.00041667    0.00000000
     atom   21 type  1   force =     0.00331040    0.00115485    0.00000000
     atom   22 type  1   force =    -0.00000413   -0.00221960    0.00000000
     atom   23 type  1   force =     0.00266713    0.00227840    0.00000000
     atom   24 type  1   force =    -0.00063418    0.00034935    0.00000000
     atom   25 type  1   force =     0.00039110   -0.00023338    0.00000000
     atom   26 type  1   force =     0.00000142   -0.00073614    0.00000000
     atom   27 type  1   force =     0.00088522    0.00052653    0.00000000
     atom   28 type  1   force =     0.00081111   -0.00022613    0.00000000
     atom   29 type  1   force =    -0.00002363    0.00047158    0.00000000
     atom   30 type  1   force =     0.00019372    0.00079841    0.00000000
     atom   31 type  1   force =     0.01283626    0.00739907    0.00000000

     Total force =     0.027551     Total SCF correction =     0.000363


     Computing stress (Cartesian axis) and pressure

          total   stress  (Ry/bohr**3)                   (kbar)     P=   -0.60
  -0.00000611   0.00000000   0.00000000         -0.90      0.00      0.00
   0.00000000  -0.00000609   0.00000000          0.00     -0.90      0.00
   0.00000000   0.00000000   0.00000002          0.00      0.00      0.00


     number of scf cycles    =   3
     number of bfgs steps    =   2

     enthalpy old            =    -140.9371200429 Ry
     enthalpy new            =    -140.9384881446 Ry

     CASE: enthalpy_new < enthalpy_old

     new trust radius        =       0.0340917858 bohr
     new conv_thr            =       0.0000010000 Ry

     new unit-cell volume =  37077.93583 a.u.^3 (  5494.38315 Ang^3 )
     density =      0.28090 g/cm^3

CELL_PARAMETERS (alat= 33.68096681)
   0.999292678   0.000000106   0.000000000
  -0.499646247   0.865415867   0.000000000
   0.000000000   0.000000000   1.122132950

ATOMIC_POSITIONS (angstrom)
Al      -0.005727869   2.572126377   0.000000000
Al       2.226354604   1.247315601   0.000000000
Al      -2.221282258   6.429850777   0.000000000
Al      -0.003086874   5.129956660   0.000000000
Al      -4.454315457  10.277477182   0.000000000
Al      -2.237928438   9.000754048   0.000000000
Al      -4.485568956  12.872806543   0.000000000
Al       4.458474253   2.572067169   0.000000000
Al       6.676769194   1.284187058   0.000000000
Al       2.226315074   6.431224642   0.000000000
Al       4.455854790   5.129969869   0.000000000
Al       0.003751832  10.280920012   0.000000000
Al       2.226372721   8.997692123   0.000000000
Al      -2.222245065  14.143525100   0.000000000
Al      -0.008424545  12.862399650   0.000000000
Al       8.907769739   2.572176569   0.000000000
Al      11.131679584   1.283713539   0.000000000
Al       6.674004467   6.429808625   0.000000000
Al       8.903854495   5.142480474   0.000000000
Al       4.448967884  10.281000890   0.000000000
Al       6.690701736   9.000828410   0.000000000
Al       2.226346992  14.133463967   0.000000000
Al       4.461273039  12.862371645   0.000000000
Al      13.355563367   2.572188962   0.000000000
Al      15.586538755   1.284172188   0.000000000
Al      11.131697495   6.424124408   0.000000000
Al      13.359527093   5.142513191   0.000000000
Al       8.907130516  10.277498801   0.000000000
Al      11.131651783   9.000341145   0.000000000
Al       6.675015082  14.143547495   0.000000000
Al       8.938365321  12.872886943   0.000000000



     Writing output data file 7al_planar_2x2_vcr.save/
     NEW-OLD atomic charge density approx. for the potential

     negative rho (up, down):  7.510E-07 0.000E+00
     extrapolated charge   92.93688, renormalised to   93.00000

     total cpu time spent up to now is      923.5 secs

     Self-consistent Calculation

     iteration #  1     ecut=    80.00 Ry     beta= 0.40
     Davidson diagonalization with overlap
     ethr =  1.00E-06,  avg # of iterations =  5.0

     negative rho (up, down):  3.819E-07 0.000E+00

     total cpu time spent up to now is      952.3 secs

     total energy              =    -140.94024371 Ry
     Harris-Foulkes estimate   =    -141.25291077 Ry
     estimated scf accuracy    <       0.00020265 Ry

     iteration #  2     ecut=    80.00 Ry     beta= 0.40
     Davidson diagonalization with overlap
     ethr =  2.18E-07,  avg # of iterations =  5.0

     negative rho (up, down):  3.440E-07 0.000E+00

     total cpu time spent up to now is      977.5 secs

     total energy              =    -140.94022198 Ry
     Harris-Foulkes estimate   =    -140.94050866 Ry
     estimated scf accuracy    <       0.00216830 Ry

     iteration #  3     ecut=    80.00 Ry     beta= 0.40
     Davidson diagonalization with overlap
     ethr =  2.18E-07,  avg # of iterations =  4.0

     negative rho (up, down):  2.215E-07 0.000E+00

     total cpu time spent up to now is      998.4 secs

     total energy              =    -140.94035668 Ry
     Harris-Foulkes estimate   =    -140.94036908 Ry
     estimated scf accuracy    <       0.00005589 Ry

     iteration #  4     ecut=    80.00 Ry     beta= 0.40
     Davidson diagonalization with overlap
     ethr =  6.01E-08,  avg # of iterations =  4.0

     negative rho (up, down):  1.642E-07 0.000E+00

     total cpu time spent up to now is     1016.1 secs

     total energy              =    -140.94035577 Ry
     Harris-Foulkes estimate   =    -140.94036403 Ry
     estimated scf accuracy    <       0.00003352 Ry

     iteration #  5     ecut=    80.00 Ry     beta= 0.40
     Davidson diagonalization with overlap
     ethr =  3.60E-08,  avg # of iterations =  4.0

     negative rho (up, down):  5.505E-08 0.000E+00

     total cpu time spent up to now is     1034.1 secs

     total energy              =    -140.94035701 Ry
     Harris-Foulkes estimate   =    -140.94036592 Ry
     estimated scf accuracy    <       0.00005789 Ry

     iteration #  6     ecut=    80.00 Ry     beta= 0.40
     Davidson diagonalization with overlap
     ethr =  3.60E-08,  avg # of iterations =  1.0

     negative rho (up, down):  2.916E-08 0.000E+00

     total cpu time spent up to now is     1050.8 secs

     total energy              =    -140.94036111 Ry
     Harris-Foulkes estimate   =    -140.94036219 Ry
     estimated scf accuracy    <       0.00000486 Ry

     iteration #  7     ecut=    80.00 Ry     beta= 0.40
     Davidson diagonalization with overlap
     ethr =  5.23E-09,  avg # of iterations =  5.0

     negative rho (up, down):  1.739E-08 0.000E+00

     total cpu time spent up to now is     1072.2 secs

     total energy              =    -140.94036168 Ry
     Harris-Foulkes estimate   =    -140.94036279 Ry
     estimated scf accuracy    <       0.00000791 Ry

     iteration #  8     ecut=    80.00 Ry     beta= 0.40
     Davidson diagonalization with overlap
     ethr =  5.23E-09,  avg # of iterations =  3.0

     total cpu time spent up to now is     1090.2 secs

     End of self-consistent calculation

          k = 0.0000 0.0000 0.0000 (448403 PWs)   bands (ev):

    -9.9554  -9.4501  -9.4390  -9.4390  -9.4211  -9.4211  -9.1387  -8.4027
    -8.4027  -8.3923  -8.3746  -8.3746  -8.3100  -8.2452  -8.2451  -7.5823
    -6.9328  -6.9327  -6.8230  -6.4782  -6.4782  -6.4694  -6.3785  -6.3784
    -5.4888  -4.8294  -4.8277  -4.8276  -4.7383  -4.7383  -4.4724  -4.4646
    -4.4444  -4.4443  -4.1352  -4.1351  -3.9788  -3.4713  -3.4671  -3.4671
    -3.4580  -3.4579  -3.3939  -3.2689  -3.2688  -3.2558  -3.2181  -2.9604
    -2.9575  -2.9574  -2.9442  -2.5084  -2.5083  -2.4404  -2.4359  -2.4356

     the Fermi energy is    -3.0903 ev

!    total energy              =    -140.94036161 Ry
     Harris-Foulkes estimate   =    -140.94036195 Ry
     estimated scf accuracy    <       0.00000057 Ry

     The total energy is the sum of the following terms:

     one-electron contribution =    -502.47016189 Ry
     hartree contribution      =     259.97909181 Ry
     xc contribution           =     -61.32839846 Ry
     ewald contribution        =     162.95842891 Ry
     smearing contrib. (-TS)   =      -0.07932197 Ry

     convergence has been achieved in   8 iterations

     Forces acting on atoms (cartesian axes, Ry/au):

     atom    1 type  1   force =     0.00134780   -0.00182063    0.00000000
     atom    2 type  1   force =     0.00000749   -0.01476963    0.00000000
     atom    3 type  1   force =     0.00185584    0.00106840    0.00000000
     atom    4 type  1   force =    -0.00002810   -0.00217617    0.00000000
     atom    5 type  1   force =    -0.00089422    0.00208523    0.00000000
     atom    6 type  1   force =    -0.00190465    0.00107071    0.00000000
     atom    7 type  1   force =    -0.01279822    0.00737067    0.00000000
     atom    8 type  1   force =    -0.00135165   -0.00183000    0.00000000
     atom    9 type  1   force =     0.00007531    0.00006080    0.00000000
     atom   10 type  1   force =    -0.00000044   -0.00004554    0.00000000
     atom   11 type  1   force =     0.00002539   -0.00217370    0.00000000
     atom   12 type  1   force =    -0.00004257    0.00003732    0.00000000
     atom   13 type  1   force =     0.00000077   -0.00000285    0.00000000
     atom   14 type  1   force =    -0.00224740   -0.00026496    0.00000000
     atom   15 type  1   force =    -0.00187751    0.00109354    0.00000000
     atom   16 type  1   force =     0.00029447    0.00015578    0.00000000
     atom   17 type  1   force =     0.00000789   -0.00140948    0.00000000
     atom   18 type  1   force =    -0.00185069    0.00107082    0.00000000
     atom   19 type  1   force =    -0.00122293    0.00072587    0.00000000
     atom   20 type  1   force =     0.00002601    0.00002433    0.00000000
     atom   21 type  1   force =     0.00191498    0.00106504    0.00000000
     atom   22 type  1   force =     0.00000223   -0.00213480    0.00000000
     atom   23 type  1   force =     0.00188599    0.00111309    0.00000000
     atom   24 type  1   force =    -0.00030382    0.00015372    0.00000000
     atom   25 type  1   force =    -0.00008754    0.00004707    0.00000000
     atom   26 type  1   force =    -0.00000268   -0.00034649    0.00000000
     atom   27 type  1   force =     0.00122480    0.00072123    0.00000000
     atom   28 type  1   force =     0.00090803    0.00211460    0.00000000
     atom   29 type  1   force =    -0.00001285   -0.00009434    0.00000000
     atom   30 type  1   force =     0.00227426   -0.00027143    0.00000000
     atom   31 type  1   force =     0.01277400    0.00736183    0.00000000

     Total force =     0.027082     Total SCF correction =     0.000367


     Computing stress (Cartesian axis) and pressure

          total   stress  (Ry/bohr**3)                   (kbar)     P=   -0.62
  -0.00000635   0.00000000   0.00000000         -0.93      0.00      0.00
   0.00000000  -0.00000633   0.00000000          0.00     -0.93      0.00
   0.00000000   0.00000000   0.00000005          0.00      0.00      0.01


     number of scf cycles    =   4
     number of bfgs steps    =   3

     enthalpy old            =    -140.9384881446 Ry
     enthalpy new            =    -140.9403616078 Ry

     CASE: enthalpy_new < enthalpy_old

     new trust radius        =       0.0511203609 bohr
     new conv_thr            =       0.0000010000 Ry

     new unit-cell volume =  37039.72569 a.u.^3 (  5488.72099 Ang^3 )
     density =      0.28119 g/cm^3

CELL_PARAMETERS (alat= 33.68096681)
   0.998776405   0.000000107   0.000000000
  -0.499388110   0.864970901   0.000000000
   0.000000000   0.000000000   1.122132950

ATOMIC_POSITIONS (angstrom)
Al      -0.007827842   2.570476538   0.000000000
Al       2.225209821   1.219636460   0.000000000
Al      -2.216611127   6.428586261   0.000000000
Al      -0.004663421   5.120366163   0.000000000
Al      -4.453336375  10.270560612   0.000000000
Al      -2.243613863   8.998232831   0.000000000
Al      -4.506668133  12.879666505   0.000000000
Al       4.458310613   2.570372319   0.000000000
Al       6.672235476   1.282948830   0.000000000
Al       2.225147966   6.430029712   0.000000000
Al       4.455138855   5.120374896   0.000000000
Al       0.005583194  10.274571569   0.000000000
Al       2.225215974   8.993059112   0.000000000
Al      -2.220321478  14.138234728   0.000000000
Al      -0.013672267  12.860646021   0.000000000
Al       8.904539896   2.571615894   0.000000000
Al      11.125926985   1.281435199   0.000000000
Al       6.667050232   6.428503254   0.000000000
Al       8.897838157   5.140683013   0.000000000
Al       4.444819739  10.274677227   0.000000000
Al       6.694098392   8.998328103   0.000000000
Al       2.225180112  14.122149612   0.000000000
Al       4.464249250  12.860608241   0.000000000
Al      13.347276770   2.571626101   0.000000000
Al      15.579531042   1.282902459   0.000000000
Al      11.125948475   6.419205203   0.000000000
Al      13.354032907   5.140722754   0.000000000
Al       8.903894725  10.270583768   0.000000000
Al      11.125862660   8.996965061   0.000000000
Al       6.670809437  14.138242807   0.000000000
Al       8.957149866  12.879756116   0.000000000



     Writing output data file 7al_planar_2x2_vcr.save/
     NEW-OLD atomic charge density approx. for the potential

     negative rho (up, down):  1.150E-06 0.000E+00
     extrapolated charge   92.90414, renormalised to   93.00000

     total cpu time spent up to now is     1161.4 secs

     Self-consistent Calculation

     iteration #  1     ecut=    80.00 Ry     beta= 0.40
     Davidson diagonalization with overlap
     ethr =  1.00E-06,  avg # of iterations =  6.0

     negative rho (up, down):  5.942E-07 0.000E+00

     total cpu time spent up to now is     1193.7 secs

     total energy              =    -140.94274505 Ry
     Harris-Foulkes estimate   =    -141.41797630 Ry
     estimated scf accuracy    <       0.00039258 Ry

     iteration #  2     ecut=    80.00 Ry     beta= 0.40
     Davidson diagonalization with overlap
     ethr =  4.22E-07,  avg # of iterations =  6.0

     negative rho (up, down):  5.367E-07 0.000E+00

     total cpu time spent up to now is     1220.9 secs

     total energy              =    -140.94271744 Ry
     Harris-Foulkes estimate   =    -140.94328253 Ry
     estimated scf accuracy    <       0.00435770 Ry

     iteration #  3     ecut=    80.00 Ry     beta= 0.40
     Davidson diagonalization with overlap
     ethr =  4.22E-07,  avg # of iterations =  4.0

     negative rho (up, down):  3.597E-07 0.000E+00

     total cpu time spent up to now is     1243.4 secs

     total energy              =    -140.94297560 Ry
     Harris-Foulkes estimate   =    -140.94300178 Ry
     estimated scf accuracy    <       0.00011529 Ry

     iteration #  4     ecut=    80.00 Ry     beta= 0.40
     Davidson diagonalization with overlap
     ethr =  1.24E-07,  avg # of iterations =  3.0

     negative rho (up, down):  2.736E-07 0.000E+00

     total cpu time spent up to now is     1261.7 secs

     total energy              =    -140.94297175 Ry
     Harris-Foulkes estimate   =    -140.94298999 Ry
     estimated scf accuracy    <       0.00007785 Ry

     iteration #  5     ecut=    80.00 Ry     beta= 0.40
     Davidson diagonalization with overlap
     ethr =  8.37E-08,  avg # of iterations =  3.0

     negative rho (up, down):  9.334E-08 0.000E+00

     total cpu time spent up to now is     1281.3 secs

     total energy              =    -140.94297289 Ry
     Harris-Foulkes estimate   =    -140.94299376 Ry
     estimated scf accuracy    <       0.00013321 Ry

     iteration #  6     ecut=    80.00 Ry     beta= 0.40
     Davidson diagonalization with overlap
     ethr =  8.37E-08,  avg # of iterations =  1.0

     negative rho (up, down):  3.525E-08 0.000E+00

     total cpu time spent up to now is     1299.4 secs

     total energy              =    -140.94298318 Ry
     Harris-Foulkes estimate   =    -140.94298418 Ry
     estimated scf accuracy    <       0.00000693 Ry

     iteration #  7     ecut=    80.00 Ry     beta= 0.40
     Davidson diagonalization with overlap
     ethr =  7.45E-09,  avg # of iterations =  5.0

     negative rho (up, down):  2.732E-08 0.000E+00

     total cpu time spent up to now is     1324.2 secs

     total energy              =    -140.94298417 Ry
     Harris-Foulkes estimate   =    -140.94298519 Ry
     estimated scf accuracy    <       0.00000744 Ry

     iteration #  8     ecut=    80.00 Ry     beta= 0.40
     Davidson diagonalization with overlap
     ethr =  7.45E-09,  avg # of iterations =  2.0

     negative rho (up, down):  1.150E-08 0.000E+00

     total cpu time spent up to now is     1342.4 secs

     total energy              =    -140.94298414 Ry
     Harris-Foulkes estimate   =    -140.94298459 Ry
     estimated scf accuracy    <       0.00000204 Ry

     iteration #  9     ecut=    80.00 Ry     beta= 0.40
     Davidson diagonalization with overlap
     ethr =  2.19E-09,  avg # of iterations =  4.0

     total cpu time spent up to now is     1362.5 secs

     End of self-consistent calculation

          k = 0.0000 0.0000 0.0000 (448403 PWs)   bands (ev):

    -9.9567  -9.4512  -9.4436  -9.4433  -9.4167  -9.4165  -9.1345  -8.4016
    -8.4015  -8.3983  -8.3675  -8.3674  -8.3133  -8.2354  -8.2352  -7.5799
    -6.9329  -6.9328  -6.8233  -6.4775  -6.4774  -6.4587  -6.3818  -6.3817
    -5.5051  -4.8241  -4.8178  -4.8178  -4.7378  -4.7377  -4.4684  -4.4613
    -4.4450  -4.4448  -4.1434  -4.1433  -3.9791  -3.4713  -3.4687  -3.4684
    -3.4550  -3.4548  -3.3875  -3.2899  -3.2645  -3.2644  -3.2158  -2.9602
    -2.9514  -2.9514  -2.9354  -2.5007  -2.5007  -2.4445  -2.4277  -2.4275

     the Fermi energy is    -3.0893 ev

!    total energy              =    -140.94298366 Ry
     Harris-Foulkes estimate   =    -140.94298439 Ry
     estimated scf accuracy    <       0.00000095 Ry

     The total energy is the sum of the following terms:

     one-electron contribution =    -502.78814053 Ry
     hartree contribution      =     260.13526646 Ry
     xc contribution           =     -61.32353073 Ry
     ewald contribution        =     163.11130450 Ry
     smearing contrib. (-TS)   =      -0.07788336 Ry

     convergence has been achieved in   9 iterations

     Forces acting on atoms (cartesian axes, Ry/au):

     atom    1 type  1   force =     0.00396203   -0.00350493    0.00000000
     atom    2 type  1   force =     0.00000777   -0.01485286    0.00000000
     atom    3 type  1   force =     0.00179482    0.00102617    0.00000000
     atom    4 type  1   force =     0.00075386   -0.00052100    0.00000000
     atom    5 type  1   force =    -0.00103108    0.00517102    0.00000000
     atom    6 type  1   force =    -0.00007970    0.00092515    0.00000000
     atom    7 type  1   force =    -0.01287724    0.00743748    0.00000000
     atom    8 type  1   force =    -0.00396117   -0.00346456    0.00000000
     atom    9 type  1   force =     0.00068817    0.00040391    0.00000000
     atom   10 type  1   force =     0.00002369   -0.00119947    0.00000000
     atom   11 type  1   force =    -0.00077897   -0.00054772    0.00000000
     atom   12 type  1   force =    -0.00102161    0.00063995    0.00000000
     atom   13 type  1   force =    -0.00001724   -0.00000650    0.00000000
     atom   14 type  1   force =    -0.00496483   -0.00168185    0.00000000
     atom   15 type  1   force =    -0.00086950   -0.00043558    0.00000000
     atom   16 type  1   force =    -0.00012061   -0.00009712    0.00000000
     atom   17 type  1   force =     0.00001019   -0.00188603    0.00000000
     atom   18 type  1   force =    -0.00181942    0.00105831    0.00000000
     atom   19 type  1   force =    -0.00162517    0.00095798    0.00000000
     atom   20 type  1   force =     0.00103320    0.00060787    0.00000000
     atom   21 type  1   force =     0.00008682    0.00090457    0.00000000
     atom   22 type  1   force =     0.00001583   -0.00206469    0.00000000
     atom   23 type  1   force =     0.00083889   -0.00038950    0.00000000
     atom   24 type  1   force =     0.00010078   -0.00007571    0.00000000
     atom   25 type  1   force =    -0.00068035    0.00041111    0.00000000
     atom   26 type  1   force =    -0.00001164    0.00013021    0.00000000
     atom   27 type  1   force =     0.00164897    0.00093649    0.00000000
     atom   28 type  1   force =     0.00101341    0.00521079    0.00000000
     atom   29 type  1   force =     0.00001152   -0.00080407    0.00000000
     atom   30 type  1   force =     0.00499773   -0.00170204    0.00000000
     atom   31 type  1   force =     0.01287084    0.00741260    0.00000000

     Total force =     0.029404     Total SCF correction =     0.000691


     Computing stress (Cartesian axis) and pressure

          total   stress  (Ry/bohr**3)                   (kbar)     P=   -0.65
  -0.00000671  -0.00000000   0.00000000         -0.99     -0.00      0.00
  -0.00000000  -0.00000668   0.00000000         -0.00     -0.98      0.00
   0.00000000   0.00000000   0.00000003          0.00      0.00      0.00


     number of scf cycles    =   5
     number of bfgs steps    =   4

     enthalpy old            =    -140.9403616078 Ry
     enthalpy new            =    -140.9429836633 Ry

     CASE: enthalpy_new < enthalpy_old

     new trust radius        =       0.0766411150 bohr
     new conv_thr            =       0.0000010000 Ry

     new unit-cell volume =  36982.02983 a.u.^3 (  5480.17135 Ang^3 )
     density =      0.28163 g/cm^3

CELL_PARAMETERS (alat= 33.68096681)
   0.997996356   0.000000039   0.000000000
  -0.498998145   0.864298612   0.000000000
   0.000000000   0.000000000   1.122132950

ATOMIC_POSITIONS (angstrom)
Al      -0.009847183   2.567272865   0.000000000
Al       2.223479470   1.178163105   0.000000000
Al      -2.209629990   6.426628723   0.000000000
Al      -0.006707426   5.106680514   0.000000000
Al      -4.451887413  10.261452430   0.000000000
Al      -2.251339735   8.994315302   0.000000000
Al      -4.538249912  12.889873033   0.000000000
Al       4.456917251   2.567130697   0.000000000
Al       6.665645294   1.281222347   0.000000000
Al       2.223398804   6.427719674   0.000000000
Al       4.453704831   5.106662130   0.000000000
Al       0.007927370  10.265244801   0.000000000
Al       2.223455459   8.986056551   0.000000000
Al      -2.218576199  14.129601683   0.000000000
Al      -0.021097634  12.857290360   0.000000000
Al       8.899474956   2.570652868   0.000000000
Al      11.117234902   1.277827527   0.000000000
Al       6.656600088   6.426497472   0.000000000
Al       8.888610522   5.138044129   0.000000000
Al       4.438993703  10.265379764   0.000000000
Al       6.698361704   8.994435903   0.000000000
Al       2.223422397  14.105142517   0.000000000
Al       4.468216563  12.857249125   0.000000000
Al      13.334934397   2.570674946   0.000000000
Al      15.568694383   1.281140400   0.000000000
Al      11.117256847   6.411981026   0.000000000
Al      13.345880966   5.138084894   0.000000000
Al       8.899015636  10.261477464   0.000000000
Al      11.117129179   8.991563545   0.000000000
Al       6.665614908  14.129578574   0.000000000
Al       8.985247500  12.889967927   0.000000000



     Writing output data file 7al_planar_2x2_vcr.save/
     NEW-OLD atomic charge density approx. for the potential

     negative rho (up, down):  1.731E-06 0.000E+00
     extrapolated charge   92.85503, renormalised to   93.00000

     total cpu time spent up to now is     1434.6 secs

     Self-consistent Calculation

     iteration #  1     ecut=    80.00 Ry     beta= 0.40
     Davidson diagonalization with overlap
     ethr =  1.00E-06,  avg # of iterations =  8.0

     negative rho (up, down):  9.085E-07 0.000E+00

     total cpu time spent up to now is     1468.6 secs

     total energy              =    -140.94618679 Ry
     Harris-Foulkes estimate   =    -141.66572728 Ry
     estimated scf accuracy    <       0.00084885 Ry

     iteration #  2     ecut=    80.00 Ry     beta= 0.40
     Davidson diagonalization with overlap
     ethr =  9.13E-07,  avg # of iterations =  6.0

     negative rho (up, down):  8.203E-07 0.000E+00

     total cpu time spent up to now is     1494.7 secs

     total energy              =    -140.94613768 Ry
     Harris-Foulkes estimate   =    -140.94741695 Ry
     estimated scf accuracy    <       0.00983003 Ry

     iteration #  3     ecut=    80.00 Ry     beta= 0.40
     Davidson diagonalization with overlap
     ethr =  9.13E-07,  avg # of iterations = 16.0

     negative rho (up, down):  5.762E-07 0.000E+00

     total cpu time spent up to now is     1520.3 secs

     total energy              =    -140.94663870 Ry
     Harris-Foulkes estimate   =    -140.94669891 Ry
     estimated scf accuracy    <       0.00026665 Ry

     iteration #  4     ecut=    80.00 Ry     beta= 0.40
     Davidson diagonalization with overlap
     ethr =  2.87E-07,  avg # of iterations =  3.0

     negative rho (up, down):  4.649E-07 0.000E+00

     total cpu time spent up to now is     1538.6 secs

     total energy              =    -140.94662849 Ry
     Harris-Foulkes estimate   =    -140.94667666 Ry
     estimated scf accuracy    <       0.00025561 Ry

     iteration #  5     ecut=    80.00 Ry     beta= 0.40
     Davidson diagonalization with overlap
     ethr =  2.75E-07,  avg # of iterations =  3.0

     negative rho (up, down):  1.985E-07 0.000E+00

     total cpu time spent up to now is     1556.3 secs

     total energy              =    -140.94663850 Ry
     Harris-Foulkes estimate   =    -140.94667391 Ry
     estimated scf accuracy    <       0.00022763 Ry

     iteration #  6     ecut=    80.00 Ry     beta= 0.40
     Davidson diagonalization with overlap
     ethr =  2.45E-07,  avg # of iterations =  1.0

     negative rho (up, down):  5.543E-08 0.000E+00

     total cpu time spent up to now is     1573.1 secs

     total energy              =    -140.94665092 Ry
     Harris-Foulkes estimate   =    -140.94665704 Ry
     estimated scf accuracy    <       0.00002832 Ry

     iteration #  7     ecut=    80.00 Ry     beta= 0.40
     Davidson diagonalization with overlap
     ethr =  3.04E-08,  avg # of iterations =  3.0

     negative rho (up, down):  3.689E-08 0.000E+00

     total cpu time spent up to now is     1592.9 secs

     total energy              =    -140.94665361 Ry
     Harris-Foulkes estimate   =    -140.94665997 Ry
     estimated scf accuracy    <       0.00004333 Ry

     iteration #  8     ecut=    80.00 Ry     beta= 0.40
     Davidson diagonalization with overlap
     ethr =  3.04E-08,  avg # of iterations =  3.0

     negative rho (up, down):  2.097E-08 0.000E+00

     total cpu time spent up to now is     1610.7 secs

     total energy              =    -140.94665674 Ry
     Harris-Foulkes estimate   =    -140.94665754 Ry
     estimated scf accuracy    <       0.00000354 Ry

     iteration #  9     ecut=    80.00 Ry     beta= 0.40
     Davidson diagonalization with overlap
     ethr =  3.80E-09,  avg # of iterations =  4.0

     total cpu time spent up to now is     1631.6 secs

     total energy              =    -140.94665685 Ry
     Harris-Foulkes estimate   =    -140.94665731 Ry
     estimated scf accuracy    <       0.00000222 Ry

     iteration # 10     ecut=    80.00 Ry     beta= 0.40
     Davidson diagonalization with overlap
     ethr =  2.38E-09,  avg # of iterations =  3.0

     total cpu time spent up to now is     1650.5 secs

     total energy              =    -140.94665666 Ry
     Harris-Foulkes estimate   =    -140.94665717 Ry
     estimated scf accuracy    <       0.00000353 Ry

     iteration # 11     ecut=    80.00 Ry     beta= 0.40
     Davidson diagonalization with overlap
     ethr =  2.38E-09,  avg # of iterations =  1.0

     total cpu time spent up to now is     1667.0 secs

     End of self-consistent calculation

          k = 0.0000 0.0000 0.0000 (448403 PWs)   bands (ev):

    -9.9596  -9.4534  -9.4511  -9.4500  -9.4114  -9.4110  -9.1299  -8.4067
    -8.4028  -8.4012  -8.3599  -8.3582  -8.3184  -8.2195  -8.2190  -7.5777
    -6.9341  -6.9338  -6.8256  -6.4770  -6.4764  -6.4444  -6.3860  -6.3853
    -5.5294  -4.8179  -4.8058  -4.8055  -4.7359  -4.7356  -4.4636  -4.4571
    -4.4465  -4.4462  -4.1561  -4.1558  -3.9803  -3.4726  -3.4721  -3.4710
    -3.4504  -3.4500  -3.3780  -3.3414  -3.2594  -3.2589  -3.2133  -2.9660
    -2.9428  -2.9423  -2.9163  -2.4911  -2.4907  -2.4501  -2.4412  -2.4173

     the Fermi energy is    -3.0884 ev

!    total energy              =    -140.94665664 Ry
     Harris-Foulkes estimate   =    -140.94665684 Ry
     estimated scf accuracy    <       0.00000033 Ry

     The total energy is the sum of the following terms:

     one-electron contribution =    -503.27402772 Ry
     hartree contribution      =     260.37268646 Ry
     xc contribution           =     -61.31683064 Ry
     ewald contribution        =     163.34741341 Ry
     smearing contrib. (-TS)   =      -0.07589814 Ry

     convergence has been achieved in  11 iterations

     Forces acting on atoms (cartesian axes, Ry/au):

     atom    1 type  1   force =     0.00762314   -0.00565111    0.00000000
     atom    2 type  1   force =    -0.00001939   -0.01513157    0.00000000
     atom    3 type  1   force =     0.00201917    0.00119281    0.00000000
     atom    4 type  1   force =     0.00178017    0.00172262    0.00000000
     atom    5 type  1   force =    -0.00129755    0.00952095    0.00000000
     atom    6 type  1   force =     0.00243079    0.00055994    0.00000000
     atom    7 type  1   force =    -0.01296394    0.00753128    0.00000000
     atom    8 type  1   force =    -0.00764127   -0.00561801    0.00000000
     atom    9 type  1   force =     0.00173963    0.00098045    0.00000000
     atom   10 type  1   force =     0.00004890   -0.00274415    0.00000000
     atom   11 type  1   force =    -0.00176043    0.00178500    0.00000000
     atom   12 type  1   force =    -0.00232968    0.00128750    0.00000000
     atom   13 type  1   force =     0.00000818   -0.00002081    0.00000000
     atom   14 type  1   force =    -0.00885947   -0.00382220    0.00000000
     atom   15 type  1   force =     0.00058687   -0.00232891    0.00000000
     atom   16 type  1   force =    -0.00075790   -0.00030307    0.00000000
     atom   17 type  1   force =     0.00008936   -0.00251872    0.00000000
     atom   18 type  1   force =    -0.00205722    0.00131988    0.00000000
     atom   19 type  1   force =    -0.00193520    0.00104251    0.00000000
     atom   20 type  1   force =     0.00232987    0.00120359    0.00000000
     atom   21 type  1   force =    -0.00246288    0.00037869    0.00000000
     atom   22 type  1   force =     0.00007494   -0.00201925    0.00000000
     atom   23 type  1   force =    -0.00066742   -0.00221964    0.00000000
     atom   24 type  1   force =     0.00078920   -0.00040731    0.00000000
     atom   25 type  1   force =    -0.00181303    0.00101634    0.00000000
     atom   26 type  1   force =    -0.00011241    0.00079810    0.00000000
     atom   27 type  1   force =     0.00200800    0.00094416    0.00000000
     atom   28 type  1   force =     0.00131533    0.00944710    0.00000000
     atom   29 type  1   force =    -0.00001813   -0.00178004    0.00000000
     atom   30 type  1   force =     0.00879409   -0.00374684    0.00000000
     atom   31 type  1   force =     0.01305826    0.00758067    0.00000000

     Total force =     0.036500     Total SCF correction =     0.000450


     Computing stress (Cartesian axis) and pressure

          total   stress  (Ry/bohr**3)                   (kbar)     P=   -0.71
  -0.00000713  -0.00000000   0.00000000         -1.05     -0.00      0.00
  -0.00000000  -0.00000724   0.00000000         -0.00     -1.07      0.00
   0.00000000   0.00000000  -0.00000000          0.00      0.00     -0.00


     number of scf cycles    =   6
     number of bfgs steps    =   5

     enthalpy old            =    -140.9429836633 Ry
     enthalpy new            =    -140.9466566362 Ry

     CASE: enthalpy_new < enthalpy_old

     new trust radius        =       0.1148723153 bohr
     new conv_thr            =       0.0000010000 Ry

     new unit-cell volume =  36895.24940 a.u.^3 (  5467.31181 Ang^3 )
     density =      0.28229 g/cm^3

CELL_PARAMETERS (alat= 33.68096681)
   0.996823979  -0.000000015   0.000000000
  -0.498412002   0.863284641   0.000000000
   0.000000000   0.000000000   1.122132950

ATOMIC_POSITIONS (angstrom)
Al      -0.011585992   2.561781753   0.000000000
Al       2.220860622   1.116064267   0.000000000
Al      -2.199018520   6.423755500   0.000000000
Al      -0.009444634   5.086937389   0.000000000
Al      -4.449792956  10.249248576   0.000000000
Al      -2.262017709   8.988169615   0.000000000
Al      -4.585406900  12.905006582   0.000000000
Al       4.453519597   2.561567610   0.000000000
Al       6.656155306   1.278846300   0.000000000
Al       2.220781184   6.423702712   0.000000000
Al       4.451248765   5.086939078   0.000000000
Al       0.011018838  10.251356765   0.000000000
Al       2.220828672   8.975487163   0.000000000
Al      -2.217315248  14.115752059   0.000000000
Al      -0.031669705  12.851566630   0.000000000
Al       8.891621155   2.569161741   0.000000000
Al      11.104219439   1.272234389   0.000000000
Al       6.640772742   6.423602073   0.000000000
Al       8.874746848   5.133992807   0.000000000
Al       4.430660139  10.251511182   0.000000000
Al       6.703810775   8.988232971   0.000000000
Al       2.220814046  14.079582600   0.000000000
Al       4.473568521  12.851550144   0.000000000
Al      13.316660801   2.569117896   0.000000000
Al      15.551935747   1.278725096   0.000000000
Al      11.104132167   6.401330967   0.000000000
Al      13.333650316   5.133990832   0.000000000
Al       8.891796472  10.249195688   0.000000000
Al      11.103978548   8.983085156   0.000000000
Al       6.659103876  14.115745842   0.000000000
Al       9.027234352  12.905163298   0.000000000



     Writing output data file 7al_planar_2x2_vcr.save/
     NEW-OLD atomic charge density approx. for the potential

     negative rho (up, down):  2.655E-06 0.000E+00
     extrapolated charge   92.78144, renormalised to   93.00000

     total cpu time spent up to now is     1739.8 secs

     Self-consistent Calculation

     iteration #  1     ecut=    80.00 Ry     beta= 0.40
     Davidson diagonalization with overlap
     ethr =  1.00E-06,  avg # of iterations = 12.0

     negative rho (up, down):  1.423E-06 0.000E+00

     total cpu time spent up to now is     1778.2 secs

     total energy              =    -140.95089985 Ry
     Harris-Foulkes estimate   =    -142.03754414 Ry
     estimated scf accuracy    <       0.00168930 Ry

     iteration #  2     ecut=    80.00 Ry     beta= 0.40
     Davidson diagonalization with overlap
     ethr =  1.82E-06,  avg # of iterations =  9.0

     negative rho (up, down):  1.281E-06 0.000E+00

     total cpu time spent up to now is     1806.5 secs

     total energy              =    -140.95096404 Ry
     Harris-Foulkes estimate   =    -140.95337142 Ry
     estimated scf accuracy    <       0.01778636 Ry

     iteration #  3     ecut=    80.00 Ry     beta= 0.40
     Davidson diagonalization with overlap
     ethr =  1.82E-06,  avg # of iterations = 16.0

     negative rho (up, down):  9.327E-07 0.000E+00

     total cpu time spent up to now is     1832.0 secs

     total energy              =    -140.95191314 Ry
     Harris-Foulkes estimate   =    -140.95204900 Ry
     estimated scf accuracy    <       0.00061775 Ry

     iteration #  4     ecut=    80.00 Ry     beta= 0.40
     Davidson diagonalization with overlap
     ethr =  6.64E-07,  avg # of iterations =  2.0

     negative rho (up, down):  5.483E-07 0.000E+00

     total cpu time spent up to now is     1849.4 secs

     total energy              =    -140.95192323 Ry
     Harris-Foulkes estimate   =    -140.95197063 Ry
     estimated scf accuracy    <       0.00029128 Ry

     iteration #  5     ecut=    80.00 Ry     beta= 0.40
     Davidson diagonalization with overlap
     ethr =  3.13E-07,  avg # of iterations =  1.0

     negative rho (up, down):  2.957E-07 0.000E+00

     total cpu time spent up to now is     1866.1 secs

     total energy              =    -140.95190075 Ry
     Harris-Foulkes estimate   =    -140.95195566 Ry
     estimated scf accuracy    <       0.00023251 Ry

     iteration #  6     ecut=    80.00 Ry     beta= 0.40
     Davidson diagonalization with overlap
     ethr =  2.50E-07,  avg # of iterations =  1.0

     negative rho (up, down):  7.316E-08 0.000E+00

     total cpu time spent up to now is     1882.8 secs

     total energy              =    -140.95191878 Ry
     Harris-Foulkes estimate   =    -140.95195823 Ry
     estimated scf accuracy    <       0.00025793 Ry

     iteration #  7     ecut=    80.00 Ry     beta= 0.40
     Davidson diagonalization with overlap
     ethr =  2.50E-07,  avg # of iterations =  1.0

     negative rho (up, down):  5.508E-08 0.000E+00

     total cpu time spent up to now is     1899.7 secs

     total energy              =    -140.95194000 Ry
     Harris-Foulkes estimate   =    -140.95194393 Ry
     estimated scf accuracy    <       0.00001965 Ry

     iteration #  8     ecut=    80.00 Ry     beta= 0.40
     Davidson diagonalization with overlap
     ethr =  2.11E-08,  avg # of iterations =  5.0

     negative rho (up, down):  3.106E-08 0.000E+00

     total cpu time spent up to now is     1922.2 secs

     total energy              =    -140.95194335 Ry
     Harris-Foulkes estimate   =    -140.95194720 Ry
     estimated scf accuracy    <       0.00002077 Ry

     iteration #  9     ecut=    80.00 Ry     beta= 0.40
     Davidson diagonalization with overlap
     ethr =  2.11E-08,  avg # of iterations =  2.0

     negative rho (up, down):  1.139E-08 0.000E+00

     total cpu time spent up to now is     1939.2 secs

     total energy              =    -140.95194390 Ry
     Harris-Foulkes estimate   =    -140.95194494 Ry
     estimated scf accuracy    <       0.00000492 Ry

     iteration # 10     ecut=    80.00 Ry     beta= 0.40
     Davidson diagonalization with overlap
     ethr =  5.29E-09,  avg # of iterations =  4.0

     total cpu time spent up to now is     1959.0 secs

     total energy              =    -140.95194405 Ry
     Harris-Foulkes estimate   =    -140.95194509 Ry
     estimated scf accuracy    <       0.00000716 Ry

     iteration # 11     ecut=    80.00 Ry     beta= 0.40
     Davidson diagonalization with overlap
     ethr =  5.29E-09,  avg # of iterations =  3.0

     total cpu time spent up to now is     1976.7 secs

     total energy              =    -140.95194432 Ry
     Harris-Foulkes estimate   =    -140.95194462 Ry
     estimated scf accuracy    <       0.00000117 Ry

     iteration # 12     ecut=    80.00 Ry     beta= 0.40
     Davidson diagonalization with overlap
     ethr =  1.26E-09,  avg # of iterations =  5.0

     total cpu time spent up to now is     1996.3 secs

     End of self-consistent calculation

          k = 0.0000 0.0000 0.0000 (448403 PWs)   bands (ev):

    -9.9647  -9.4614  -9.4613  -9.4567  -9.4054  -9.4053  -9.1263  -8.4192
    -8.4037  -8.4034  -8.3511  -8.3507  -8.3258  -8.1937  -8.1936  -7.5796
    -6.9367  -6.9365  -6.8302  -6.4759  -6.4756  -6.4253  -6.3905  -6.3903
    -5.5678  -4.8092  -4.7923  -4.7921  -4.7298  -4.7296  -4.4570  -4.4513
    -4.4491  -4.4490  -4.1760  -4.1758  -3.9824  -3.4775  -3.4775  -3.4722
    -3.4440  -3.4439  -3.4232  -3.3639  -3.2521  -3.2520  -3.2124  -2.9755
    -2.9302  -2.9301  -2.8857  -2.4780  -2.4776  -2.4581  -2.4394  -2.4392

     the Fermi energy is    -3.0876 ev

!    total energy              =    -140.95194431 Ry
     Harris-Foulkes estimate   =    -140.95194452 Ry
     estimated scf accuracy    <       0.00000026 Ry

     The total energy is the sum of the following terms:

     one-electron contribution =    -504.02925497 Ry
     hartree contribution      =     260.74288016 Ry
     xc contribution           =     -61.30906615 Ry
     ewald contribution        =     163.71596990 Ry
     smearing contrib. (-TS)   =      -0.07247325 Ry

     convergence has been achieved in  12 iterations

     Forces acting on atoms (cartesian axes, Ry/au):

     atom    1 type  1   force =     0.01245962   -0.00907015    0.00000000
     atom    2 type  1   force =    -0.00000179   -0.01542107    0.00000000
     atom    3 type  1   force =     0.00205483    0.00113689    0.00000000
     atom    4 type  1   force =     0.00294393    0.00493456    0.00000000
     atom    5 type  1   force =    -0.00161014    0.01526622    0.00000000
     atom    6 type  1   force =     0.00578390    0.00014385    0.00000000
     atom    7 type  1   force =    -0.01335404    0.00777858    0.00000000
     atom    8 type  1   force =    -0.01255894   -0.00896243    0.00000000
     atom    9 type  1   force =     0.00298868    0.00158343    0.00000000
     atom   10 type  1   force =     0.00002156   -0.00468321    0.00000000
     atom   11 type  1   force =    -0.00299783    0.00488763    0.00000000
     atom   12 type  1   force =    -0.00408699    0.00237968    0.00000000
     atom   13 type  1   force =     0.00001124   -0.00000708    0.00000000
     atom   14 type  1   force =    -0.01414836   -0.00619618    0.00000000
     atom   15 type  1   force =     0.00286650   -0.00511128    0.00000000
     atom   16 type  1   force =    -0.00152593   -0.00083941    0.00000000
     atom   17 type  1   force =    -0.00002124   -0.00294293    0.00000000
     atom   18 type  1   force =    -0.00204384    0.00120289    0.00000000
     atom   19 type  1   force =    -0.00262853    0.00143266    0.00000000
     atom   20 type  1   force =     0.00409965    0.00233561    0.00000000
     atom   21 type  1   force =    -0.00578371    0.00013799    0.00000000
     atom   22 type  1   force =     0.00004178   -0.00247019    0.00000000
     atom   23 type  1   force =    -0.00291271   -0.00506316    0.00000000
     atom   24 type  1   force =     0.00153785   -0.00079782    0.00000000
     atom   25 type  1   force =    -0.00288030    0.00165129    0.00000000
     atom   26 type  1   force =     0.00001402    0.00190358    0.00000000
     atom   27 type  1   force =     0.00263506    0.00142347    0.00000000
     atom   28 type  1   force =     0.00148790    0.01533280    0.00000000
     atom   29 type  1   force =     0.00009372   -0.00351220    0.00000000
     atom   30 type  1   force =     0.01415324   -0.00620415    0.00000000
     atom   31 type  1   force =     0.01336089    0.00775009    0.00000000

     Total force =     0.049973     Total SCF correction =     0.000387


     Computing stress (Cartesian axis) and pressure

          total   stress  (Ry/bohr**3)                   (kbar)     P=   -0.77
  -0.00000784  -0.00000001   0.00000000         -1.15     -0.00      0.00
  -0.00000001  -0.00000790   0.00000000         -0.00     -1.16      0.00
   0.00000000   0.00000000   0.00000002          0.00      0.00      0.00


     number of scf cycles    =   7
     number of bfgs steps    =   6

     enthalpy old            =    -140.9466566362 Ry
     enthalpy new            =    -140.9519443052 Ry

     CASE: enthalpy_new < enthalpy_old

     new trust radius        =       0.1721063200 bohr
     new conv_thr            =       0.0000010000 Ry

     new unit-cell volume =  36764.83041 a.u.^3 (  5447.98572 Ang^3 )
     density =      0.28329 g/cm^3

CELL_PARAMETERS (alat= 33.68096681)
   0.995058074  -0.000000291   0.000000000
  -0.497529289   0.861759835   0.000000000
   0.000000000   0.000000000   1.122132950

ATOMIC_POSITIONS (angstrom)
Al      -0.012889168   2.552498152   0.000000000
Al       2.216930501   1.023178324   0.000000000
Al      -2.183121061   6.419345170   0.000000000
Al      -0.013341144   5.058303331   0.000000000
Al      -4.446681793  10.232435118   0.000000000
Al      -2.277063144   8.978724856   0.000000000
Al      -4.655989920  12.927581734   0.000000000
Al       4.447041101   2.552212066   0.000000000
Al       6.642202999   1.275401002   0.000000000
Al       2.216809896   6.417194470   0.000000000
Al       4.447271854   5.058254034   0.000000000
Al       0.015205227  10.230793960   0.000000000
Al       2.216870827   8.959603631   0.000000000
Al      -2.216875734  14.094374573   0.000000000
Al      -0.046714624  12.842123136   0.000000000
Al       8.879578611   2.566714930   0.000000000
Al      11.084528306   1.263932206   0.000000000
Al       6.617056103   6.419090201   0.000000000
Al       8.853717617   5.127994888   0.000000000
Al       4.418580661  10.231019842   0.000000000
Al       6.711002930   8.978846365   0.000000000
Al       2.216845901  14.040908280   0.000000000
Al       4.480784316  12.842081754   0.000000000
Al      13.289329226   2.566680774   0.000000000
Al      15.526474396   1.275229601   0.000000000
Al      11.084461974   6.385698151   0.000000000
Al      13.315316347   5.128002445   0.000000000
Al       8.880874461  10.232361072   0.000000000
Al      11.084238256   8.969720295   0.000000000
Al       6.650806881  14.094325603   0.000000000
Al       9.089952902  12.927773036   0.000000000



[...]


     Computing stress (Cartesian axis) and pressure

          total   stress  (Ry/bohr**3)                   (kbar)     P=   -0.00
   0.00000000   0.00000000   0.00000000          0.00      0.00      0.00
   0.00000000  -0.00000000   0.00000000          0.00     -0.00      0.00
   0.00000000   0.00000000  -0.00000001          0.00      0.00     -0.00


     bfgs converged in 240 scf cycles and 238 bfgs steps
     (criteria: energy <  1.0E-05 Ry, force <  1.0E-04Ry/Bohr, cell <  5.0E-05kbar)

     End of BFGS Geometry Optimization

     Final enthalpy =    -142.2701674917 Ry
Begin final coordinates
     new unit-cell volume =  26092.82388 a.u.^3 (  3866.55753 Ang^3 )
     density =      0.39916 g/cm^3

CELL_PARAMETERS (alat= 33.68096681)
   0.838292504  -0.000262421   0.000000000
  -0.418920117   0.726115954   0.000000000
   0.000000000   0.000000000   1.122132950

ATOMIC_POSITIONS (angstrom)
Al      -0.300778209   1.287090751   0.000000000
Al       2.350219035   1.703795633   0.000000000
Al      -1.022339815   5.878705721   0.000000000
Al      -1.987001734   3.374566257   0.000000000
Al      -4.394795352  10.053863380   0.000000000
Al      -2.708597369   7.966280083   0.000000000
Al      -3.430108638  12.558001938   0.000000000
Al       5.001207127   2.120385320   0.000000000
Al       6.687369803   0.032794624   0.000000000
Al       0.663953449   3.791236847   0.000000000
Al       3.314934034   4.207912410   0.000000000
Al      -0.057649203   8.382863182   0.000000000
Al       1.628582529   6.295406428   0.000000000
Al      -1.743908430  10.470432019   0.000000000
Al       0.907042487  10.886964601   0.000000000
Al       7.652126668   2.536895549   0.000000000
Al       9.338336561   0.449302697   0.000000000
Al       4.279597189   6.711984031   0.000000000
Al       5.965887917   4.624475448   0.000000000
Al       5.244356610   9.216018028   0.000000000
Al       6.930613120   7.128491448   0.000000000
Al       2.593347673   8.799443084   0.000000000
Al       3.558020930  11.303448247   0.000000000
Al      10.303111854   2.953315874   0.000000000
Al      11.989326101   0.865780520   0.000000000
Al       8.616850118   5.040907367   0.000000000
Al      11.267792236   5.457409141   0.000000000
Al       7.895347562   9.632542494   0.000000000
Al       9.581589076   7.544992067   0.000000000
Al       6.209072408  11.720025121   0.000000000
Al       8.860013147  12.136684884   0.000000000
End final coordinates



     Writing output data file 7al_planar_2x2_vcr.save/

     A final scf calculation at the relaxed structure.
     The G-vectors are recalculated for the final unit cell
     Results may differ from those at the preceding step.
 
     Parallelization info
     --------------------
     sticks:   dense  smooth     PW     G-vecs:    dense   smooth      PW
     Min        2198    2198    550               315304   315304   39396
     Max        2199    2199    551               315313   315313   39401
     Sum       17587   17587   4405              2522465  2522465  315191
 


     bravais-lattice index     =            4
     lattice parameter (alat)  =      33.6810  a.u.
     unit-cell volume          =   26092.8239 (a.u.)^3
     number of atoms/cell      =           31
     number of atomic types    =            1
     number of electrons       =        93.00
     number of Kohn-Sham states=           56
     kinetic-energy cutoff     =      80.0000  Ry
     charge density cutoff     =     320.0000  Ry
     convergence threshold     =      1.0E-08
     mixing beta               =       0.4000
     number of iterations used =            8  plain     mixing
     Exchange-correlation      = PBE ( 1  4  3  4 0 0)

     celldm(1)=  33.680967  celldm(2)=   0.000000  celldm(3)=   1.122133
     celldm(4)=   0.000000  celldm(5)=   0.000000  celldm(6)=   0.000000

     crystal axes: (cart. coord. in units of alat)
               a(1) = (   0.838293  -0.000262   0.000000 )  
               a(2) = (  -0.418920   0.726116   0.000000 )  
               a(3) = (   0.000000   0.000000   1.122133 )  

     reciprocal axes: (cart. coord. in units 2 pi/alat)
               b(1) = (  1.193117  0.688348  0.000000 )  
               b(2) = (  0.000431  1.377439  0.000000 )  
               b(3) = (  0.000000  0.000000  0.891160 )  


     PseudoPot. # 1 for Al read from file:
     ./Al.upf
     MD5 check sum: 4974d48a734c9d7d1eb6780a1419d19d
     Pseudo is Norm-conserving + core correction, Zval =  3.0
     Generated using ONCVPSP code by D. R. Hamann
     Using radial grid of 1876 points,  6 beta functions with: 
                l(1) =   0
                l(2) =   0
                l(3) =   1
                l(4) =   1
                l(5) =   2
                l(6) =   2

     atomic species   valence    mass     pseudopotential
        Al             3.00    29.98200     Al( 1.00)

      2 Sym. Ops. (no inversion) found



   Cartesian axes

     site n.     atom                  positions (alat units)
         1           Al  tau(   1) = (  -0.0168757   0.0722143   0.0000000  )
         2           Al  tau(   2) = (   0.1318629   0.0955943   0.0000000  )
         3           Al  tau(   3) = (  -0.0573601   0.3298345   0.0000000  )
         4           Al  tau(   4) = (  -0.1114840   0.1893356   0.0000000  )
         5           Al  tau(   5) = (  -0.2465772   0.5640886   0.0000000  )
         6           Al  tau(   6) = (  -0.1519703   0.4469613   0.0000000  )
         7           Al  tau(   7) = (  -0.1924519   0.7045874   0.0000000  )
         8           Al  tau(   8) = (   0.2806010   0.1189677   0.0000000  )
         9           Al  tau(   9) = (   0.3752059   0.0018400   0.0000000  )
        10           Al  tau(  10) = (   0.0372522   0.2127136   0.0000000  )
        11           Al  tau(  11) = (   0.1859898   0.2360919   0.0000000  )
        12           Al  tau(  12) = (  -0.0032345   0.4703343   0.0000000  )
        13           Al  tau(  13) = (   0.0913743   0.3532141   0.0000000  )
        14           Al  tau(  14) = (  -0.0978449   0.5874608   0.0000000  )
        15           Al  tau(  15) = (   0.0508911   0.6108311   0.0000000  )
        16           Al  tau(  16) = (   0.4293352   0.1423367   0.0000000  )
        17           Al  tau(  17) = (   0.5239428   0.0252089   0.0000000  )
        18           Al  tau(  18) = (   0.2401139   0.3765869   0.0000000  )
        19           Al  tau(  19) = (   0.3347260   0.2594638   0.0000000  )
        20           Al  tau(  20) = (   0.2942433   0.5170799   0.0000000  )
        21           Al  tau(  21) = (   0.3888535   0.3999558   0.0000000  )
        22           Al  tau(  22) = (   0.1455040   0.4937073   0.0000000  )
        23           Al  tau(  23) = (   0.1996286   0.6341986   0.0000000  )
        24           Al  tau(  24) = (   0.5780731   0.1657007   0.0000000  )
        25           Al  tau(  25) = (   0.6726809   0.0485760   0.0000000  )
        26           Al  tau(  26) = (   0.4834626   0.2828284   0.0000000  )
        27           Al  tau(  27) = (   0.6321980   0.3061969   0.0000000  )
        28           Al  tau(  28) = (   0.4429815   0.5404497   0.0000000  )
        29           Al  tau(  29) = (   0.5375908   0.4233242   0.0000000  )
        30           Al  tau(  30) = (   0.3483702   0.6575713   0.0000000  )
        31           Al  tau(  31) = (   0.4971056   0.6809487   0.0000000  )

     number of k points=     1  Methfessel-Paxton smearing, width (Ry)=  0.0500
                       cart. coord. in units 2pi/alat
        k(    1) = (   0.0000000   0.0000000   0.0000000), wk =   2.0000000

     Dense  grid:  2522465 G-vectors     FFT dimensions: ( 162, 162, 216)

     Estimated max dynamical RAM per process >     839.96 MB

     Estimated total dynamical RAM >       6.56 GB

     Initial potential from superposition of free atoms

     starting charge   92.92414, renormalised to   93.00000

     negative rho (up, down):  7.270E-05 0.000E+00
     Starting wfcs are  124 randomized atomic wfcs

     total cpu time spent up to now is    72395.7 secs

     Self-consistent Calculation

     iteration #  1     ecut=    80.00 Ry     beta= 0.40
     Davidson diagonalization with overlap
     ethr =  1.00E-06,  avg # of iterations =  9.0

     negative rho (up, down):  1.174E-05 0.000E+00

     total cpu time spent up to now is    72435.8 secs

     total energy              =    -142.21845536 Ry
     Harris-Foulkes estimate   =    -142.58378528 Ry
     estimated scf accuracy    <       1.01227318 Ry

     iteration #  2     ecut=    80.00 Ry     beta= 0.40
     Davidson diagonalization with overlap
     ethr =  1.09E-03,  avg # of iterations =  1.0

     negative rho (up, down):  3.420E-06 0.000E+00

     total cpu time spent up to now is    72449.0 secs

     total energy              =    -142.25980449 Ry
     Harris-Foulkes estimate   =    -142.29576032 Ry
     estimated scf accuracy    <       0.10989759 Ry

     iteration #  3     ecut=    80.00 Ry     beta= 0.40
     Davidson diagonalization with overlap
     ethr =  1.18E-04,  avg # of iterations =  1.0

     negative rho (up, down):  2.317E-07 0.000E+00

     total cpu time spent up to now is    72462.8 secs

     total energy              =    -142.26910850 Ry
     Harris-Foulkes estimate   =    -142.27099119 Ry
     estimated scf accuracy    <       0.00856453 Ry

     iteration #  4     ecut=    80.00 Ry     beta= 0.40
     Davidson diagonalization with overlap
     ethr =  9.21E-06,  avg # of iterations =  2.0

     negative rho (up, down):  6.347E-08 0.000E+00

     total cpu time spent up to now is    72477.5 secs

     total energy              =    -142.26976770 Ry
     Harris-Foulkes estimate   =    -142.26981280 Ry
     estimated scf accuracy    <       0.00011885 Ry

     iteration #  5     ecut=    80.00 Ry     beta= 0.40
     Davidson diagonalization with overlap
     ethr =  1.28E-07,  avg # of iterations =  5.0

     negative rho (up, down):  4.451E-08 0.000E+00

     total cpu time spent up to now is    72500.7 secs

     total energy              =    -142.26987728 Ry
     Harris-Foulkes estimate   =    -142.26989434 Ry
     estimated scf accuracy    <       0.00008818 Ry

     iteration #  6     ecut=    80.00 Ry     beta= 0.40
     Davidson diagonalization with overlap
     ethr =  9.48E-08,  avg # of iterations =  4.0

     negative rho (up, down):  3.871E-08 0.000E+00

     total cpu time spent up to now is    72514.9 secs

     total energy              =    -142.26988354 Ry
     Harris-Foulkes estimate   =    -142.26988466 Ry
     estimated scf accuracy    <       0.00001546 Ry

     iteration #  7     ecut=    80.00 Ry     beta= 0.40
     Davidson diagonalization with overlap
     ethr =  1.66E-08,  avg # of iterations =  2.0

     total cpu time spent up to now is    72527.6 secs

     total energy              =    -142.26988314 Ry
     Harris-Foulkes estimate   =    -142.26988424 Ry
     estimated scf accuracy    <       0.00000961 Ry

     iteration #  8     ecut=    80.00 Ry     beta= 0.40
     Davidson diagonalization with overlap
     ethr =  1.03E-08,  avg # of iterations =  5.0

     total cpu time spent up to now is    72546.7 secs

     total energy              =    -142.26988447 Ry
     Harris-Foulkes estimate   =    -142.26988786 Ry
     estimated scf accuracy    <       0.00001687 Ry

     iteration #  9     ecut=    80.00 Ry     beta= 0.40
     Davidson diagonalization with overlap
     ethr =  1.03E-08,  avg # of iterations =  1.0

     total cpu time spent up to now is    72560.0 secs

     total energy              =    -142.26988345 Ry
     Harris-Foulkes estimate   =    -142.26988493 Ry
     estimated scf accuracy    <       0.00000575 Ry

     iteration # 10     ecut=    80.00 Ry     beta= 0.40
     Davidson diagonalization with overlap
     ethr =  6.18E-09,  avg # of iterations =  4.0

     total cpu time spent up to now is    72574.1 secs

     total energy              =    -142.26988367 Ry
     Harris-Foulkes estimate   =    -142.26988388 Ry
     estimated scf accuracy    <       0.00000066 Ry

     iteration # 11     ecut=    80.00 Ry     beta= 0.40
     Davidson diagonalization with overlap
     ethr =  7.14E-10,  avg # of iterations =  7.0

     total cpu time spent up to now is    72594.9 secs

     total energy              =    -142.26988390 Ry
     Harris-Foulkes estimate   =    -142.26988393 Ry
     estimated scf accuracy    <       0.00000044 Ry

     iteration # 12     ecut=    80.00 Ry     beta= 0.40
     Davidson diagonalization with overlap
     ethr =  4.76E-10,  avg # of iterations =  1.0

     total cpu time spent up to now is    72608.3 secs

     total energy              =    -142.26988387 Ry
     Harris-Foulkes estimate   =    -142.26988391 Ry
     estimated scf accuracy    <       0.00000032 Ry

     iteration # 13     ecut=    80.00 Ry     beta= 0.40
     Davidson diagonalization with overlap
     ethr =  3.48E-10,  avg # of iterations =  4.0

     total cpu time spent up to now is    72623.1 secs

     total energy              =    -142.26988388 Ry
     Harris-Foulkes estimate   =    -142.26988388 Ry
     estimated scf accuracy    <       0.00000005 Ry

     iteration # 14     ecut=    80.00 Ry     beta= 0.40
     Davidson diagonalization with overlap
     ethr =  5.61E-11,  avg # of iterations =  4.0

     total cpu time spent up to now is    72638.7 secs

     End of self-consistent calculation

          k = 0.0000 0.0000 0.0000 (315191 PWs)   bands (ev):

   -11.6236 -10.7477 -10.7477 -10.7477 -10.7477 -10.7477 -10.7476  -9.0216
    -9.0216  -9.0216  -9.0216  -9.0216  -9.0215  -8.1738  -8.1737  -8.1737
    -8.1737  -8.1737  -8.1737  -5.7781  -5.7781  -5.7781  -5.7781  -5.7781
    -5.7780  -5.7076  -5.7075  -5.7075  -5.7075  -5.7075  -5.7075  -4.8691
    -4.0233  -4.0233  -4.0233  -4.0233  -4.0233  -4.0233  -3.7523  -3.7522
    -3.7522  -3.7521  -3.7521  -3.7521  -2.3345  -2.3345  -2.3345  -2.3345
    -2.3345  -2.3345  -1.8112  -1.8111  -1.8111  -1.8111  -1.8110  -1.8110

     the Fermi energy is    -2.4051 ev

!    total energy              =    -142.26988387 Ry
     Harris-Foulkes estimate   =    -142.26988388 Ry
     estimated scf accuracy    <          7.6E-09 Ry

     The total energy is the sum of the following terms:

     one-electron contribution =    -702.58114587 Ry
     hartree contribution      =     360.19349416 Ry
     xc contribution           =     -63.84989965 Ry
     ewald contribution        =     264.01433190 Ry
     smearing contrib. (-TS)   =      -0.04666442 Ry

     convergence has been achieved in  14 iterations

     Forces acting on atoms (cartesian axes, Ry/au):

     atom    1 type  1   force =     0.00000651    0.00000438    0.00000000
     atom    2 type  1   force =    -0.00000339   -0.00000384    0.00000000
     atom    3 type  1   force =    -0.00000143    0.00000967    0.00000000
     atom    4 type  1   force =    -0.00000095    0.00000416    0.00000000
     atom    5 type  1   force =    -0.00000210   -0.00000692    0.00000000
     atom    6 type  1   force =     0.00000702   -0.00000195    0.00000000
     atom    7 type  1   force =     0.00000644   -0.00000568    0.00000000
     atom    8 type  1   force =    -0.00001018   -0.00000565    0.00000000
     atom    9 type  1   force =    -0.00000297    0.00000131    0.00000000
     atom   10 type  1   force =    -0.00000055    0.00000211    0.00000000
     atom   11 type  1   force =    -0.00000673   -0.00000349    0.00000000
     atom   12 type  1   force =    -0.00000480    0.00000426    0.00000000
     atom   13 type  1   force =     0.00000815   -0.00000839    0.00000000
     atom   14 type  1   force =     0.00000574   -0.00000558    0.00000000
     atom   15 type  1   force =     0.00000352   -0.00000606    0.00000000
     atom   16 type  1   force =     0.00000193   -0.00000766    0.00000000
     atom   17 type  1   force =    -0.00000247   -0.00000259    0.00000000
     atom   18 type  1   force =     0.00000158   -0.00000238    0.00000000
     atom   19 type  1   force =    -0.00000091   -0.00000517    0.00000000
     atom   20 type  1   force =    -0.00000195   -0.00000471    0.00000000
     atom   21 type  1   force =     0.00000153    0.00000303    0.00000000
     atom   22 type  1   force =    -0.00000711    0.00000155    0.00000000
     atom   23 type  1   force =     0.00000797    0.00000640    0.00000000
     atom   24 type  1   force =    -0.00000472    0.00000692    0.00000000
     atom   25 type  1   force =    -0.00000330    0.00000379    0.00000000
     atom   26 type  1   force =     0.00000432    0.00000558    0.00000000
     atom   27 type  1   force =     0.00000186    0.00001008    0.00000000
     atom   28 type  1   force =    -0.00000087    0.00000242    0.00000000
     atom   29 type  1   force =    -0.00000427    0.00000684    0.00000000
     atom   30 type  1   force =    -0.00000200    0.00000078    0.00000000
     atom   31 type  1   force =     0.00000409   -0.00000321    0.00000000

     Total force =     0.000039     Total SCF correction =     0.000088
     SCF correction compared to forces is large: reduce conv_thr to get better values


     Computing stress (Cartesian axis) and pressure

          total   stress  (Ry/bohr**3)                   (kbar)     P=    0.00
   0.00000005   0.00000000   0.00000000          0.01      0.00      0.00
   0.00000000   0.00000004   0.00000000          0.00      0.01      0.00
   0.00000000   0.00000000  -0.00000002          0.00      0.00     -0.00


     Writing output data file 7al_planar_2x2_vcr.save/
 
     init_run     :     35.04s CPU     40.40s WALL (       2 calls)
     electrons    :  45250.21s CPU  54770.89s WALL (     241 calls)
     update_pot   :   3886.26s CPU   3943.94s WALL (     239 calls)
     forces       :   3179.01s CPU   3292.44s WALL (     241 calls)
     stress       :  10238.62s CPU  10502.08s WALL (     241 calls)

     Called by init_run:
     wfcinit      :     16.62s CPU     21.33s WALL (       2 calls)
     potinit      :      7.09s CPU      7.46s WALL (       2 calls)
     hinit0       :      8.49s CPU      8.65s WALL (       2 calls)

     Called by electrons:
     c_bands      :  38061.91s CPU  45629.41s WALL (    2236 calls)
     sum_band     :   4749.78s CPU   6087.04s WALL (    2236 calls)
     v_of_rho     :   2159.48s CPU   2578.53s WALL (    2421 calls)
     mix_rho      :    390.03s CPU    564.44s WALL (    2236 calls)

     Called by c_bands:
     init_us_2    :    590.51s CPU    594.35s WALL (    4474 calls)
     cegterg      :  32145.86s CPU  39702.11s WALL (    2238 calls)

     Called by sum_band:

     Called by *egterg:
     h_psi        :  27800.51s CPU  35139.26s WALL (   14202 calls)
     g_psi        :    116.95s CPU    120.35s WALL (   11962 calls)
     cdiaghg      :    106.34s CPU    107.60s WALL (   13903 calls)

     Called by h_psi:
     h_psi:pot    :  27722.42s CPU  34929.73s WALL (   14202 calls)
     h_psi:calbec :   3697.98s CPU   3710.69s WALL (   14202 calls)
     vloc_psi     :  19995.98s CPU  27182.58s WALL (   14202 calls)
     add_vuspsi   :   4028.30s CPU   4036.35s WALL (   14202 calls)

     General routines
     calbec       :   4296.16s CPU   4310.71s WALL (   15407 calls)
     fft          :   1820.89s CPU   2149.91s WALL (   30530 calls)
     ffts         :    114.48s CPU    137.80s WALL (    2236 calls)
     fftw         :  20979.01s CPU  29224.88s WALL (  879600 calls)
 
     Parallel routines
     fft_scatt_xy :   4298.80s CPU   6135.68s WALL (  912366 calls)
     fft_scatt_yz :   6842.78s CPU   8504.33s WALL (  912366 calls)
 
     PWSCF        :    17h24m CPU       24h20m WALL

      11h
 
   This run was terminated on:  17:27: 9  26Nov2020            

=------------------------------------------------------------------------------=
   JOB DONE.
=------------------------------------------------------------------------------=
