
     Program PWSCF v.6.3MaX starts on 25Nov2020 at 18: 3:56 

     This program is part of the open-source Quantum ESPRESSO suite
     for quantum simulation of materials; please cite
         "P. Giannozzi et al., J. Phys.:Condens. Matter 21 395502 (2009);
         "P. Giannozzi et al., J. Phys.:Condens. Matter 29 465901 (2017);
          URL http://www.quantum-espresso.org", 
     in publications or presentations arising from this work. More details at
     http://www.quantum-espresso.org/quote

     Parallel version (MPI), running on     8 processors

     MPI processes distributed on     2 nodes
     R & G space division:  proc/nbgrp/npool/nimage =       8
     Waiting for input...
     Reading input from standard input

     Current dimensions of program PWSCF are:
     Max number of different atomic species (ntypx) = 10
     Max number of k-points (npk) =  40000
     Max angular momentum in pseudopotentials (lmaxx) =  3

     Subspace diagonalization in iterative solution of the eigenvalue problem:
     a serial algorithm will be used

 
     Parallelization info
     --------------------
     sticks:   dense  smooth     PW     G-vecs:    dense   smooth      PW
     Min        1758    1758    438               252392   252392   31546
     Max        1759    1759    439               252397   252397   31551
     Sum       14071   14071   3505              2019149  2019149  252395
 


     bravais-lattice index     =            4
     lattice parameter (alat)  =      25.2607  a.u.
     unit-cell volume          =   20885.8003 (a.u.)^3
     number of atoms/cell      =           17
     number of atomic types    =            1
     number of electrons       =        51.00
     number of Kohn-Sham states=           31
     kinetic-energy cutoff     =      80.0000  Ry
     charge density cutoff     =     320.0000  Ry
     convergence threshold     =      1.0E-06
     mixing beta               =       0.4000
     number of iterations used =            8  plain     mixing
     Exchange-correlation      = PBE ( 1  4  3  4 0 0)
     nstep                     =          300


     celldm(1)=  25.260725  celldm(2)=   0.000000  celldm(3)=   1.496177
     celldm(4)=   0.000000  celldm(5)=   0.000000  celldm(6)=   0.000000

     crystal axes: (cart. coord. in units of alat)
               a(1) = (   1.000000   0.000000   0.000000 )  
               a(2) = (  -0.500000   0.866025   0.000000 )  
               a(3) = (   0.000000   0.000000   1.496177 )  

     reciprocal axes: (cart. coord. in units 2 pi/alat)
               b(1) = (  1.000000  0.577350  0.000000 )  
               b(2) = (  0.000000  1.154701  0.000000 )  
               b(3) = (  0.000000  0.000000  0.668370 )  


     PseudoPot. # 1 for Al read from file:
     ./Al.upf
     MD5 check sum: 4974d48a734c9d7d1eb6780a1419d19d
     Pseudo is Norm-conserving + core correction, Zval =  3.0
     Generated using ONCVPSP code by D. R. Hamann
     Using radial grid of 1876 points,  6 beta functions with: 
                l(1) =   0
                l(2) =   0
                l(3) =   1
                l(4) =   1
                l(5) =   2
                l(6) =   2

     atomic species   valence    mass     pseudopotential
        Al             3.00    29.98200     Al( 1.00)

      4 Sym. Ops. (no inversion) found ( 2 have fractional translation)



   Cartesian axes

     site n.     atom                  positions (alat units)
         1           Al  tau(   1) = (   0.0000000   0.1924524   0.0000000  )
         2           Al  tau(   2) = (   0.1666687   0.0962261   0.0000000  )
         3           Al  tau(   3) = (   0.3333348   0.1924537   0.0000000  )
         4           Al  tau(   4) = (   0.5000036   0.0962275   0.0000000  )
         5           Al  tau(   5) = (  -0.1666663   0.4811295   0.0000000  )
         6           Al  tau(   6) = (   0.0000024   0.3849033   0.0000000  )
         7           Al  tau(   7) = (   0.1666686   0.4811309   0.0000000  )
         8           Al  tau(   8) = (   0.3333373   0.3849047   0.0000000  )
         9           Al  tau(   9) = (  -0.3333326   0.7698067   0.0000000  )
        10           Al  tau(  10) = (  -0.1666639   0.6735805   0.0000000  )
        11           Al  tau(  11) = (   0.0000023   0.7698081   0.0000000  )
        12           Al  tau(  12) = (   0.1666710   0.6735818   0.0000000  )
        13           Al  tau(  13) = (   0.6666697   0.1924551   0.0000000  )
        14           Al  tau(  14) = (   0.8333384   0.0962289   0.0000000  )
        15           Al  tau(  15) = (   0.5000035   0.4811323   0.0000000  )
        16           Al  tau(  16) = (   0.6666722   0.3849060   0.0000000  )
        17           Al  tau(  17) = (   0.5000059   0.6735832   0.0000000  )

     number of k points=     1  Methfessel-Paxton smearing, width (Ry)=  0.0500
                       cart. coord. in units 2pi/alat
        k(    1) = (   0.0000000   0.0000000   0.0000000), wk =   2.0000000

     Dense  grid:  2019149 G-vectors     FFT dimensions: ( 144, 144, 216)

     Estimated max dynamical RAM per process >     437.36 MB

     Estimated total dynamical RAM >       3.42 GB

     Initial potential from superposition of free atoms

     starting charge   50.95840, renormalised to   51.00000

     negative rho (up, down):  5.196E-05 0.000E+00
     Starting wfcs are   68 randomized atomic wfcs

     total cpu time spent up to now is       15.1 secs

     Self-consistent Calculation

     iteration #  1     ecut=    80.00 Ry     beta= 0.40
     Davidson diagonalization with overlap
     ethr =  1.00E-02,  avg # of iterations =  2.0

     total cpu time spent up to now is       23.7 secs

     total energy              =     -77.03462208 Ry
     Harris-Foulkes estimate   =     -77.31745082 Ry
     estimated scf accuracy    <       0.79274820 Ry

     iteration #  2     ecut=    80.00 Ry     beta= 0.40
     Davidson diagonalization with overlap
     ethr =  1.55E-03,  avg # of iterations =  4.0

     negative rho (up, down):  1.412E-07 0.000E+00

     total cpu time spent up to now is       31.8 secs

     total energy              =     -77.00149315 Ry
     Harris-Foulkes estimate   =     -77.25574300 Ry
     estimated scf accuracy    <       0.82963165 Ry

     iteration #  3     ecut=    80.00 Ry     beta= 0.40
     Davidson diagonalization with overlap
     ethr =  1.55E-03,  avg # of iterations =  3.0

     negative rho (up, down):  7.412E-06 0.000E+00

     total cpu time spent up to now is       39.9 secs

     total energy              =     -77.12632704 Ry
     Harris-Foulkes estimate   =     -77.19000673 Ry
     estimated scf accuracy    <       0.29572832 Ry

     iteration #  4     ecut=    80.00 Ry     beta= 0.40
     Davidson diagonalization with overlap
     ethr =  5.80E-04,  avg # of iterations =  2.0

     negative rho (up, down):  1.261E-05 0.000E+00

     total cpu time spent up to now is       47.7 secs

     total energy              =     -77.14831765 Ry
     Harris-Foulkes estimate   =     -77.16550582 Ry
     estimated scf accuracy    <       0.07378556 Ry

     iteration #  5     ecut=    80.00 Ry     beta= 0.40
     Davidson diagonalization with overlap
     ethr =  1.45E-04,  avg # of iterations =  3.0

     negative rho (up, down):  2.130E-05 0.000E+00

     total cpu time spent up to now is       56.5 secs

     total energy              =     -77.15924346 Ry
     Harris-Foulkes estimate   =     -77.16223234 Ry
     estimated scf accuracy    <       0.01641767 Ry

     iteration #  6     ecut=    80.00 Ry     beta= 0.40
     Davidson diagonalization with overlap
     ethr =  3.22E-05,  avg # of iterations =  5.0

     negative rho (up, down):  4.135E-05 0.000E+00

     total cpu time spent up to now is       65.5 secs

     total energy              =     -77.16166194 Ry
     Harris-Foulkes estimate   =     -77.16208752 Ry
     estimated scf accuracy    <       0.00269606 Ry

     iteration #  7     ecut=    80.00 Ry     beta= 0.40
     Davidson diagonalization with overlap
     ethr =  5.29E-06,  avg # of iterations =  3.0

     negative rho (up, down):  4.294E-05 0.000E+00

     total cpu time spent up to now is       73.9 secs

     total energy              =     -77.16201344 Ry
     Harris-Foulkes estimate   =     -77.16214646 Ry
     estimated scf accuracy    <       0.00046117 Ry

     iteration #  8     ecut=    80.00 Ry     beta= 0.40
     Davidson diagonalization with overlap
     ethr =  9.04E-07,  avg # of iterations =  4.0

     negative rho (up, down):  4.356E-05 0.000E+00

     total cpu time spent up to now is       83.4 secs

     total energy              =     -77.16205238 Ry
     Harris-Foulkes estimate   =     -77.16219402 Ry
     estimated scf accuracy    <       0.00092267 Ry

     iteration #  9     ecut=    80.00 Ry     beta= 0.40
     Davidson diagonalization with overlap
     ethr =  9.04E-07,  avg # of iterations =  2.0

     negative rho (up, down):  4.593E-05 0.000E+00

     total cpu time spent up to now is       90.4 secs

     total energy              =     -77.16209788 Ry
     Harris-Foulkes estimate   =     -77.16211762 Ry
     estimated scf accuracy    <       0.00007200 Ry

     iteration # 10     ecut=    80.00 Ry     beta= 0.40
     Davidson diagonalization with overlap
     ethr =  1.41E-07,  avg # of iterations =  6.0

     negative rho (up, down):  4.621E-05 0.000E+00

     total cpu time spent up to now is      102.0 secs

     total energy              =     -77.16211490 Ry
     Harris-Foulkes estimate   =     -77.16212466 Ry
     estimated scf accuracy    <       0.00007202 Ry

     iteration # 11     ecut=    80.00 Ry     beta= 0.40
     Davidson diagonalization with overlap
     ethr =  1.41E-07,  avg # of iterations =  2.0

     negative rho (up, down):  4.653E-05 0.000E+00

     total cpu time spent up to now is      110.2 secs

     total energy              =     -77.16211475 Ry
     Harris-Foulkes estimate   =     -77.16211850 Ry
     estimated scf accuracy    <       0.00001674 Ry

     iteration # 12     ecut=    80.00 Ry     beta= 0.40
     Davidson diagonalization with overlap
     ethr =  3.28E-08,  avg # of iterations =  4.0

     negative rho (up, down):  4.669E-05 0.000E+00

     total cpu time spent up to now is      120.5 secs

     total energy              =     -77.16211711 Ry
     Harris-Foulkes estimate   =     -77.16211857 Ry
     estimated scf accuracy    <       0.00000791 Ry

     iteration # 13     ecut=    80.00 Ry     beta= 0.40
     Davidson diagonalization with overlap
     ethr =  1.55E-08,  avg # of iterations =  4.0

     negative rho (up, down):  4.694E-05 0.000E+00

     total cpu time spent up to now is      130.0 secs

     total energy              =     -77.16211778 Ry
     Harris-Foulkes estimate   =     -77.16211845 Ry
     estimated scf accuracy    <       0.00000407 Ry

     iteration # 14     ecut=    80.00 Ry     beta= 0.40
     Davidson diagonalization with overlap
     ethr =  7.97E-09,  avg # of iterations =  1.0

     negative rho (up, down):  4.701E-05 0.000E+00

     total cpu time spent up to now is      136.3 secs

     End of self-consistent calculation

          k = 0.0000 0.0000 0.0000 (252395 PWs)   bands (ev):

    -9.9967  -9.1547  -9.0982  -9.0980  -9.0600  -9.0597  -8.4090  -7.5384
    -7.4675  -7.4674  -6.7265  -5.8852  -5.8794  -5.8793  -5.6095  -5.6092
    -4.7522  -4.7520  -4.0027  -3.5336  -3.3090  -3.2901  -3.2901  -3.2356
    -3.1478  -3.1136  -3.1133  -3.0992  -3.0989  -2.7514  -2.7512

     the Fermi energy is    -3.1137 ev

!    total energy              =     -77.16211744 Ry
     Harris-Foulkes estimate   =     -77.16211806 Ry
     estimated scf accuracy    <       0.00000073 Ry

     The total energy is the sum of the following terms:

     one-electron contribution =    -269.13915475 Ry
     hartree contribution      =     139.26353076 Ry
     xc contribution           =     -33.51712930 Ry
     ewald contribution        =      86.35186878 Ry
     smearing contrib. (-TS)   =      -0.12123293 Ry

     convergence has been achieved in  14 iterations

     negative rho (up, down):  4.701E-05 0.000E+00

     Forces acting on atoms (cartesian axes, Ry/au):

     atom    1 type  1   force =    -0.00063009    0.00502091    0.00000000
     atom    2 type  1   force =     0.00062378    0.00036014    0.00000000
     atom    3 type  1   force =     0.00001663    0.00000960    0.00000000
     atom    4 type  1   force =    -0.00060169    0.00035644    0.00000000
     atom    5 type  1   force =     0.00000675    0.00000390    0.00000000
     atom    6 type  1   force =     0.00821296   -0.00472530    0.00000000
     atom    7 type  1   force =    -0.00466287   -0.00190559    0.00000000
     atom    8 type  1   force =     0.00000784   -0.00069930    0.00000000
     atom    9 type  1   force =     0.00403319   -0.00305613    0.00000000
     atom   10 type  1   force =     0.00001425    0.00947528    0.00000000
     atom   11 type  1   force =    -0.00398172   -0.00308537    0.00000000
     atom   12 type  1   force =     0.01928881    0.01113640    0.00000000
     atom   13 type  1   force =     0.00062515    0.00502093    0.00000000
     atom   14 type  1   force =    -0.00004414   -0.02229343    0.00000000
     atom   15 type  1   force =     0.00466083   -0.00196907    0.00000000
     atom   16 type  1   force =    -0.00824094   -0.00475791    0.00000000
     atom   17 type  1   force =    -0.01932875    0.01110849    0.00000000

     Total force =     0.043759     Total SCF correction =     0.000611


     Computing stress (Cartesian axis) and pressure


     negative rho (up, down):  4.701E-05 0.000E+00
          total   stress  (Ry/bohr**3)                   (kbar)     P=   -0.80
  -0.00000819   0.00000001   0.00000000         -1.20      0.00      0.00
   0.00000001  -0.00000820   0.00000000          0.00     -1.21      0.00
   0.00000000   0.00000000   0.00000002          0.00      0.00      0.00


     BFGS Geometry Optimization

     number of scf cycles    =   1
     number of bfgs steps    =   0

     enthalpy new            =     -77.1621174358 Ry

     new trust radius        =       0.0222934758 bohr
     new conv_thr            =       0.0000010000 Ry

     new unit-cell volume =  20877.24156 a.u.^3 (  3093.68798 Ang^3 )
     density =      0.27358 g/cm^3

CELL_PARAMETERS (alat= 25.26072511)
   0.999795248   0.000000283   0.000000000
  -0.499897379   0.865847659   0.000000000
   0.000000000   0.000000000   1.496177267

ATOMIC_POSITIONS (angstrom)
Al      -0.000332049   2.574716692   0.000000000
Al       2.227800956   1.286220806   0.000000000
Al       4.454917398   2.572084819   0.000000000
Al       6.682061055   1.286238299   0.000000000
Al      -2.227433669   6.430133453   0.000000000
Al       0.004378768   5.141601364   0.000000000
Al       2.225004232   6.429142654   0.000000000
Al       4.454946153   5.143750846   0.000000000
Al      -4.452740795  10.286585590   0.000000000
Al      -2.227396295   9.007185546   0.000000000
Al      -0.002072777  10.286589568   0.000000000
Al       2.237709730   9.008083847   0.000000000
Al       8.910147806   2.574755608   0.000000000
Al      11.137264489   1.274274413   0.000000000
Al       6.684845571   6.429128522   0.000000000
Al       8.905490435   5.141623010   0.000000000
Al       6.672186840   9.008088526   0.000000000



     Writing output data file 17al_planar_2x2_vcr.save/
     NEW-OLD atomic charge density approx. for the potential

     negative rho (up, down):  4.702E-05 0.000E+00
     extrapolated charge   50.97911, renormalised to   51.00000

     total cpu time spent up to now is      168.4 secs

     Self-consistent Calculation

     iteration #  1     ecut=    80.00 Ry     beta= 0.40
     Davidson diagonalization with overlap
     ethr =  1.00E-06,  avg # of iterations =  4.0

     negative rho (up, down):  4.708E-05 0.000E+00

     total cpu time spent up to now is      181.1 secs

     total energy              =     -77.16398542 Ry
     Harris-Foulkes estimate   =     -77.26490387 Ry
     estimated scf accuracy    <       0.00016472 Ry

     iteration #  2     ecut=    80.00 Ry     beta= 0.40
     Davidson diagonalization with overlap
     ethr =  3.23E-07,  avg # of iterations =  6.0

     negative rho (up, down):  4.706E-05 0.000E+00

     total cpu time spent up to now is      192.5 secs

     total energy              =     -77.16394625 Ry
     Harris-Foulkes estimate   =     -77.16416604 Ry
     estimated scf accuracy    <       0.00137628 Ry

     iteration #  3     ecut=    80.00 Ry     beta= 0.40
     Davidson diagonalization with overlap
     ethr =  3.23E-07,  avg # of iterations =  5.0

     negative rho (up, down):  4.701E-05 0.000E+00

     total cpu time spent up to now is      202.1 secs

     total energy              =     -77.16405202 Ry
     Harris-Foulkes estimate   =     -77.16406471 Ry
     estimated scf accuracy    <       0.00005626 Ry

     iteration #  4     ecut=    80.00 Ry     beta= 0.40
     Davidson diagonalization with overlap
     ethr =  1.10E-07,  avg # of iterations =  3.0

     negative rho (up, down):  4.700E-05 0.000E+00

     total cpu time spent up to now is      210.4 secs

     total energy              =     -77.16405641 Ry
     Harris-Foulkes estimate   =     -77.16406205 Ry
     estimated scf accuracy    <       0.00002324 Ry

     iteration #  5     ecut=    80.00 Ry     beta= 0.40
     Davidson diagonalization with overlap
     ethr =  4.56E-08,  avg # of iterations =  3.0

     negative rho (up, down):  4.699E-05 0.000E+00

     total cpu time spent up to now is      218.4 secs

     total energy              =     -77.16405917 Ry
     Harris-Foulkes estimate   =     -77.16406030 Ry
     estimated scf accuracy    <       0.00000501 Ry

     iteration #  6     ecut=    80.00 Ry     beta= 0.40
     Davidson diagonalization with overlap
     ethr =  9.82E-09,  avg # of iterations =  4.0

     negative rho (up, down):  4.698E-05 0.000E+00

     total cpu time spent up to now is      228.6 secs

     total energy              =     -77.16405941 Ry
     Harris-Foulkes estimate   =     -77.16406127 Ry
     estimated scf accuracy    <       0.00000995 Ry

     iteration #  7     ecut=    80.00 Ry     beta= 0.40
     Davidson diagonalization with overlap
     ethr =  9.82E-09,  avg # of iterations =  6.0

     negative rho (up, down):  4.695E-05 0.000E+00

     total cpu time spent up to now is      236.7 secs

     End of self-consistent calculation

          k = 0.0000 0.0000 0.0000 (252395 PWs)   bands (ev):

    -9.9964  -9.1516  -9.0996  -9.0994  -9.0557  -9.0556  -8.4041  -7.5360
    -7.4657  -7.4656  -6.7340  -5.8837  -5.8719  -5.8718  -5.6131  -5.6130
    -4.7564  -4.7563  -4.0021  -3.5554  -3.2993  -3.2863  -3.2862  -3.2412
    -3.1449  -3.1122  -3.1120  -3.0976  -3.0974  -2.7449  -2.7447

     the Fermi energy is    -3.1121 ev

!    total energy              =     -77.16406003 Ry
     Harris-Foulkes estimate   =     -77.16406055 Ry
     estimated scf accuracy    <       0.00000079 Ry

     The total energy is the sum of the following terms:

     one-electron contribution =    -269.17391058 Ry
     hartree contribution      =     139.27833011 Ry
     xc contribution           =     -33.51200478 Ry
     ewald contribution        =      86.36372174 Ry
     smearing contrib. (-TS)   =      -0.12019652 Ry

     convergence has been achieved in   7 iterations

     negative rho (up, down):  4.695E-05 0.000E+00

     Forces acting on atoms (cartesian axes, Ry/au):

     atom    1 type  1   force =    -0.00149836    0.00374410    0.00000000
     atom    2 type  1   force =     0.00026579    0.00015345    0.00000000
     atom    3 type  1   force =    -0.00000074   -0.00000043    0.00000000
     atom    4 type  1   force =    -0.00025937    0.00015682    0.00000000
     atom    5 type  1   force =    -0.00000490   -0.00000283    0.00000000
     atom    6 type  1   force =     0.00685037   -0.00394770    0.00000000
     atom    7 type  1   force =    -0.00397758   -0.00056634    0.00000000
     atom    8 type  1   force =     0.00000613   -0.00030304    0.00000000
     atom    9 type  1   force =     0.00249331   -0.00316967    0.00000000
     atom   10 type  1   force =     0.00000638    0.00790644    0.00000000
     atom   11 type  1   force =    -0.00247926   -0.00316151    0.00000000
     atom   12 type  1   force =     0.01912611    0.01104246    0.00000000
     atom   13 type  1   force =     0.00148765    0.00374278    0.00000000
     atom   14 type  1   force =    -0.00001022   -0.02209090    0.00000000
     atom   15 type  1   force =     0.00398517   -0.00058305    0.00000000
     atom   16 type  1   force =    -0.00685407   -0.00395720    0.00000000
     atom   17 type  1   force =    -0.01913639    0.01103660    0.00000000

     Total force =     0.041820     Total SCF correction =     0.000568


     Computing stress (Cartesian axis) and pressure


     negative rho (up, down):  4.695E-05 0.000E+00
          total   stress  (Ry/bohr**3)                   (kbar)     P=   -0.87
  -0.00000886  -0.00000000   0.00000000         -1.30     -0.00      0.00
  -0.00000000  -0.00000886   0.00000000         -0.00     -1.30      0.00
  -0.00000000  -0.00000000   0.00000004         -0.00     -0.00      0.01


     number of scf cycles    =   2
     number of bfgs steps    =   1

     enthalpy old            =     -77.1621174358 Ry
     enthalpy new            =     -77.1640600328 Ry

     CASE: enthalpy_new < enthalpy_old


     WARNING: bfgs curvature condition failed, Theta= 0.837
     new trust radius        =       0.0334333558 bohr
     new conv_thr            =       0.0000010000 Ry

     new unit-cell volume =  20863.81541 a.u.^3 (  3091.69843 Ang^3 )
     density =      0.27375 g/cm^3

CELL_PARAMETERS (alat= 25.26072511)
   0.999473822   0.000000474   0.000000000
  -0.499736500   0.865569009   0.000000000
   0.000000000   0.000000000   1.496177267

ATOMIC_POSITIONS (angstrom)
Al      -0.001186353   2.577371584   0.000000000
Al       2.227436745   1.286010529   0.000000000
Al       4.453491877   2.571261782   0.000000000
Al       6.679572562   1.286028791   0.000000000
Al      -2.226715686   6.428064747   0.000000000
Al       0.010370904   5.136496872   0.000000000
Al       2.220852022   6.426099927   0.000000000
Al       4.453520467   5.141700490   0.000000000
Al      -4.448718209  10.280793439   0.000000000
Al      -2.226670314   9.011202290   0.000000000
Al      -0.004633418  10.280790150   0.000000000
Al       2.252299914   9.014024260   0.000000000
Al       8.908132393   2.577411670   0.000000000
Al      11.133662789   1.256180134   0.000000000
Al       6.686138092   6.426055063   0.000000000
Al       8.896623384   5.136503604   0.000000000
Al       6.654715884   9.014016478   0.000000000



     Writing output data file 17al_planar_2x2_vcr.save/
     NEW-OLD atomic charge density approx. for the potential

     negative rho (up, down):  4.697E-05 0.000E+00
     extrapolated charge   50.96721, renormalised to   51.00000

     total cpu time spent up to now is      267.6 secs

     Self-consistent Calculation

     iteration #  1     ecut=    80.00 Ry     beta= 0.40
     Davidson diagonalization with overlap
     ethr =  1.00E-06,  avg # of iterations =  4.0

     negative rho (up, down):  4.708E-05 0.000E+00

     total cpu time spent up to now is      277.8 secs

     total energy              =     -77.16664098 Ry
     Harris-Foulkes estimate   =     -77.32511853 Ry
     estimated scf accuracy    <       0.00031329 Ry

     iteration #  2     ecut=    80.00 Ry     beta= 0.40
     Davidson diagonalization with overlap
     ethr =  6.14E-07,  avg # of iterations =  6.0

     negative rho (up, down):  4.703E-05 0.000E+00

     total cpu time spent up to now is      288.2 secs

     total energy              =     -77.16659765 Ry
     Harris-Foulkes estimate   =     -77.16698917 Ry
     estimated scf accuracy    <       0.00233648 Ry

     iteration #  3     ecut=    80.00 Ry     beta= 0.40
     Davidson diagonalization with overlap
     ethr =  6.14E-07,  avg # of iterations =  5.0

     negative rho (up, down):  4.699E-05 0.000E+00

     total cpu time spent up to now is      297.3 secs

     total energy              =     -77.16677500 Ry
     Harris-Foulkes estimate   =     -77.16680090 Ry
     estimated scf accuracy    <       0.00011293 Ry

     iteration #  4     ecut=    80.00 Ry     beta= 0.40
     Davidson diagonalization with overlap
     ethr =  2.21E-07,  avg # of iterations =  5.0

     negative rho (up, down):  4.695E-05 0.000E+00

     total cpu time spent up to now is      305.6 secs

     total energy              =     -77.16678432 Ry
     Harris-Foulkes estimate   =     -77.16679341 Ry
     estimated scf accuracy    <       0.00003864 Ry

     iteration #  5     ecut=    80.00 Ry     beta= 0.40
     Davidson diagonalization with overlap
     ethr =  7.58E-08,  avg # of iterations =  4.0

     negative rho (up, down):  4.684E-05 0.000E+00

     total cpu time spent up to now is      313.6 secs

     total energy              =     -77.16678857 Ry
     Harris-Foulkes estimate   =     -77.16679034 Ry
     estimated scf accuracy    <       0.00000948 Ry

     iteration #  6     ecut=    80.00 Ry     beta= 0.40
     Davidson diagonalization with overlap
     ethr =  1.86E-08,  avg # of iterations =  3.0

     negative rho (up, down):  4.684E-05 0.000E+00

     total cpu time spent up to now is      322.3 secs

     total energy              =     -77.16679029 Ry
     Harris-Foulkes estimate   =     -77.16679048 Ry
     estimated scf accuracy    <       0.00000131 Ry

     iteration #  7     ecut=    80.00 Ry     beta= 0.40
     Davidson diagonalization with overlap
     ethr =  2.56E-09,  avg # of iterations =  4.0

     negative rho (up, down):  4.685E-05 0.000E+00

     total cpu time spent up to now is      332.6 secs

     total energy              =     -77.16679045 Ry
     Harris-Foulkes estimate   =     -77.16679070 Ry
     estimated scf accuracy    <       0.00000125 Ry

     iteration #  8     ecut=    80.00 Ry     beta= 0.40
     Davidson diagonalization with overlap
     ethr =  2.46E-09,  avg # of iterations =  3.0

     negative rho (up, down):  4.687E-05 0.000E+00

     total cpu time spent up to now is      339.9 secs

     End of self-consistent calculation

          k = 0.0000 0.0000 0.0000 (252395 PWs)   bands (ev):

    -9.9960  -9.1474  -9.1020  -9.1018  -9.0490  -9.0487  -8.3978  -7.5324
    -7.4629  -7.4629  -6.7446  -5.8809  -5.8614  -5.8612  -5.6179  -5.6176
    -4.7626  -4.7624  -4.0013  -3.5883  -3.2846  -3.2803  -3.2802  -3.2488
    -3.1409  -3.1122  -3.1120  -3.0934  -3.0932  -2.7352  -2.7349

     the Fermi energy is    -3.1096 ev

!    total energy              =     -77.16679026 Ry
     Harris-Foulkes estimate   =     -77.16679062 Ry
     estimated scf accuracy    <       0.00000056 Ry

     The total energy is the sum of the following terms:

     one-electron contribution =    -269.23227177 Ry
     hartree contribution      =     139.30362485 Ry
     xc contribution           =     -33.50463876 Ry
     ewald contribution        =      86.38516689 Ry
     smearing contrib. (-TS)   =      -0.11867147 Ry

     convergence has been achieved in   8 iterations

     negative rho (up, down):  4.687E-05 0.000E+00

     Forces acting on atoms (cartesian axes, Ry/au):

     atom    1 type  1   force =    -0.00265197    0.00200142    0.00000000
     atom    2 type  1   force =    -0.00028789   -0.00016621    0.00000000
     atom    3 type  1   force =     0.00002347    0.00001355    0.00000000
     atom    4 type  1   force =     0.00028226   -0.00018794    0.00000000
     atom    5 type  1   force =    -0.00000022   -0.00000012    0.00000000
     atom    6 type  1   force =     0.00497633   -0.00284747    0.00000000
     atom    7 type  1   force =    -0.00303697    0.00129492    0.00000000
     atom    8 type  1   force =    -0.00002163    0.00033841    0.00000000
     atom    9 type  1   force =     0.00040730   -0.00329738    0.00000000
     atom   10 type  1   force =     0.00002218    0.00573336    0.00000000
     atom   11 type  1   force =    -0.00039705   -0.00327756    0.00000000
     atom   12 type  1   force =     0.01886479    0.01089159    0.00000000
     atom   13 type  1   force =     0.00263614    0.00199274    0.00000000
     atom   14 type  1   force =    -0.00000585   -0.02180805    0.00000000
     atom   15 type  1   force =     0.00304383    0.00128659    0.00000000
     atom   16 type  1   force =    -0.00496547   -0.00286681    0.00000000
     atom   17 type  1   force =    -0.01888925    0.01089896    0.00000000

     Total force =     0.039879     Total SCF correction =     0.000440


     Computing stress (Cartesian axis) and pressure


     negative rho (up, down):  4.687E-05 0.000E+00
          total   stress  (Ry/bohr**3)                   (kbar)     P=   -0.96
  -0.00000981   0.00000000   0.00000000         -1.44      0.00      0.00
   0.00000000  -0.00000981   0.00000000          0.00     -1.44      0.00
   0.00000000   0.00000000   0.00000007          0.00      0.00      0.01


     number of scf cycles    =   3
     number of bfgs steps    =   2

     enthalpy old            =     -77.1640600328 Ry
     enthalpy new            =     -77.1667902622 Ry

     CASE: enthalpy_new < enthalpy_old

     new trust radius        =       0.0501338998 bohr
     new conv_thr            =       0.0000010000 Ry

     new unit-cell volume =  20842.37534 a.u.^3 (  3088.52134 Ang^3 )
     density =      0.27404 g/cm^3

CELL_PARAMETERS (alat= 25.26072511)
   0.998960377   0.000000866   0.000000000
  -0.499479439   0.865123765   0.000000000
   0.000000000   0.000000000   1.496177267

ATOMIC_POSITIONS (angstrom)
Al      -0.003192456   2.580217144   0.000000000
Al       2.226475660   1.285455647   0.000000000
Al       4.451231797   2.569956906   0.000000000
Al       6.675968898   1.285458218   0.000000000
Al      -2.225564380   6.424761587   0.000000000
Al       0.018242943   5.129336094   0.000000000
Al       2.215111289   6.422487142   0.000000000
Al       4.451224504   5.138864893   0.000000000
Al      -4.443820675  10.271681513   0.000000000
Al      -2.225499453   9.015648274   0.000000000
Al      -0.007196274  10.271673102   0.000000000
Al       2.274084512   9.022633736   0.000000000
Al       8.905552352   2.580255060   0.000000000
Al      11.127912130   1.229022556   0.000000000
Al       6.687310536   6.422398939   0.000000000
Al       8.884169120   5.129313113   0.000000000
Al       6.628321402   9.022615014   0.000000000



     Writing output data file 17al_planar_2x2_vcr.save/
     NEW-OLD atomic charge density approx. for the potential

     negative rho (up, down):  4.691E-05 0.000E+00
     extrapolated charge   50.94758, renormalised to   51.00000

     total cpu time spent up to now is      372.9 secs

     Self-consistent Calculation

     iteration #  1     ecut=    80.00 Ry     beta= 0.40
     Davidson diagonalization with overlap
     ethr =  1.00E-06,  avg # of iterations =  6.0

     negative rho (up, down):  4.711E-05 0.000E+00

     total cpu time spent up to now is      385.7 secs

     total energy              =     -77.17037300 Ry
     Harris-Foulkes estimate   =     -77.42376606 Ry
     estimated scf accuracy    <       0.00044931 Ry

     iteration #  2     ecut=    80.00 Ry     beta= 0.40
     Davidson diagonalization with overlap
     ethr =  8.81E-07,  avg # of iterations =  5.0

     negative rho (up, down):  4.702E-05 0.000E+00

     total cpu time spent up to now is      394.3 secs

     total energy              =     -77.17040903 Ry
     Harris-Foulkes estimate   =     -77.17081870 Ry
     estimated scf accuracy    <       0.00216046 Ry

     iteration #  3     ecut=    80.00 Ry     beta= 0.40
     Davidson diagonalization with overlap
     ethr =  8.81E-07,  avg # of iterations =  4.0

     negative rho (up, down):  4.698E-05 0.000E+00

     total cpu time spent up to now is      401.1 secs

     total energy              =     -77.17057636 Ry
     Harris-Foulkes estimate   =     -77.17062165 Ry
     estimated scf accuracy    <       0.00021529 Ry

     iteration #  4     ecut=    80.00 Ry     beta= 0.40
     Davidson diagonalization with overlap
     ethr =  4.22E-07,  avg # of iterations =  3.0

     negative rho (up, down):  4.695E-05 0.000E+00

     total cpu time spent up to now is      407.8 secs

     total energy              =     -77.17058819 Ry
     Harris-Foulkes estimate   =     -77.17060666 Ry
     estimated scf accuracy    <       0.00008742 Ry

     iteration #  5     ecut=    80.00 Ry     beta= 0.40
     Davidson diagonalization with overlap
     ethr =  1.71E-07,  avg # of iterations =  1.0

     negative rho (up, down):  4.685E-05 0.000E+00

     total cpu time spent up to now is      414.3 secs

     total energy              =     -77.17059421 Ry
     Harris-Foulkes estimate   =     -77.17060000 Ry
     estimated scf accuracy    <       0.00002699 Ry

     iteration #  6     ecut=    80.00 Ry     beta= 0.40
     Davidson diagonalization with overlap
     ethr =  5.29E-08,  avg # of iterations =  4.0

     negative rho (up, down):  4.683E-05 0.000E+00

     total cpu time spent up to now is      421.7 secs

     total energy              =     -77.17059509 Ry
     Harris-Foulkes estimate   =     -77.17060327 Ry
     estimated scf accuracy    <       0.00004456 Ry

     iteration #  7     ecut=    80.00 Ry     beta= 0.40
     Davidson diagonalization with overlap
     ethr =  5.29E-08,  avg # of iterations =  4.0

     negative rho (up, down):  4.681E-05 0.000E+00

     total cpu time spent up to now is      429.6 secs

     total energy              =     -77.17059940 Ry
     Harris-Foulkes estimate   =     -77.17060014 Ry
     estimated scf accuracy    <       0.00000378 Ry

     iteration #  8     ecut=    80.00 Ry     beta= 0.40
     Davidson diagonalization with overlap
     ethr =  7.40E-09,  avg # of iterations =  4.0

     negative rho (up, down):  4.680E-05 0.000E+00

     total cpu time spent up to now is      438.2 secs

     total energy              =     -77.17059974 Ry
     Harris-Foulkes estimate   =     -77.17060009 Ry
     estimated scf accuracy    <       0.00000170 Ry

     iteration #  9     ecut=    80.00 Ry     beta= 0.40
     Davidson diagonalization with overlap
     ethr =  3.34E-09,  avg # of iterations =  3.0

     negative rho (up, down):  4.674E-05 0.000E+00

     total cpu time spent up to now is      445.8 secs

     End of self-consistent calculation

          k = 0.0000 0.0000 0.0000 (252395 PWs)   bands (ev):

    -9.9956  -9.1420  -9.1058  -9.1056  -9.0386  -9.0385  -8.3909  -7.5267
    -7.4588  -7.4587  -6.7603  -5.8762  -5.8472  -5.8471  -5.6241  -5.6239
    -4.7716  -4.7715  -4.0001  -3.6400  -3.2714  -3.2712  -3.2665  -3.2548
    -3.1354  -3.1136  -3.1134  -3.0855  -3.0854  -2.7217  -2.7215

     the Fermi energy is    -3.1054 ev

!    total energy              =     -77.17059944 Ry
     Harris-Foulkes estimate   =     -77.17060005 Ry
     estimated scf accuracy    <       0.00000088 Ry

     The total energy is the sum of the following terms:

     one-electron contribution =    -269.33241305 Ry
     hartree contribution      =     139.34733181 Ry
     xc contribution           =     -33.49420505 Ry
     ewald contribution        =      86.42519209 Ry
     smearing contrib. (-TS)   =      -0.11650524 Ry

     convergence has been achieved in   9 iterations

     negative rho (up, down):  4.674E-05 0.000E+00

     Forces acting on atoms (cartesian axes, Ry/au):

     atom    1 type  1   force =    -0.00416127   -0.00045140    0.00000000
     atom    2 type  1   force =    -0.00097396   -0.00056232    0.00000000
     atom    3 type  1   force =    -0.00000324   -0.00000187    0.00000000
     atom    4 type  1   force =     0.00098401   -0.00055908    0.00000000
     atom    5 type  1   force =    -0.00002238   -0.00001292    0.00000000
     atom    6 type  1   force =     0.00253477   -0.00146384    0.00000000
     atom    7 type  1   force =    -0.00169121    0.00380934    0.00000000
     atom    8 type  1   force =     0.00000783    0.00113172    0.00000000
     atom    9 type  1   force =    -0.00247156   -0.00337806    0.00000000
     atom   10 type  1   force =    -0.00000034    0.00292709    0.00000000
     atom   11 type  1   force =     0.00245338   -0.00336931    0.00000000
     atom   12 type  1   force =     0.01848547    0.01067259    0.00000000
     atom   13 type  1   force =     0.00415747   -0.00044745    0.00000000
     atom   14 type  1   force =    -0.00000837   -0.02130470    0.00000000
     atom   15 type  1   force =     0.00169123    0.00382420    0.00000000
     atom   16 type  1   force =    -0.00252724   -0.00145910    0.00000000
     atom   17 type  1   force =    -0.01845460    0.01064510    0.00000000

     Total force =     0.038699     Total SCF correction =     0.000675


     Computing stress (Cartesian axis) and pressure


     negative rho (up, down):  4.674E-05 0.000E+00
          total   stress  (Ry/bohr**3)                   (kbar)     P=   -1.09
  -0.00001116   0.00000000   0.00000000         -1.64      0.00      0.00
   0.00000000  -0.00001116   0.00000000          0.00     -1.64      0.00
   0.00000000   0.00000000   0.00000008          0.00      0.00      0.01


     number of scf cycles    =   4
     number of bfgs steps    =   3

     enthalpy old            =     -77.1667902622 Ry
     enthalpy new            =     -77.1705994439 Ry

     CASE: enthalpy_new < enthalpy_old

     new trust radius        =       0.0751621839 bohr
     new conv_thr            =       0.0000010000 Ry

     new unit-cell volume =  20808.53638 a.u.^3 (  3083.50692 Ang^3 )
     density =      0.27448 g/cm^3

CELL_PARAMETERS (alat= 25.26072511)
   0.998149480   0.000001508   0.000000000
  -0.499073434   0.864420544   0.000000000
   0.000000000   0.000000000   1.496177267

ATOMIC_POSITIONS (angstrom)
Al      -0.007027699   2.583073957   0.000000000
Al       2.224578975   1.284360595   0.000000000
Al       4.447639892   2.567883088   0.000000000
Al       6.670669476   1.284360101   0.000000000
Al      -2.223761407   6.419535668   0.000000000
Al       0.028810739   5.119081582   0.000000000
Al       2.207109675   6.418166853   0.000000000
Al       4.447623795   5.134824489   0.000000000
Al      -4.437836984  10.257531376   0.000000000
Al      -2.223668984   9.020527227   0.000000000
Al      -0.009511296  10.257503317   0.000000000
Al       2.306661796   9.035175375   0.000000000
Al       8.902155081   2.583118960   0.000000000
Al      11.118827266   1.188291732   0.000000000
Al       6.688092137   6.418024792   0.000000000
Al       8.866359223   5.119030535   0.000000000
Al       6.588505041   9.035112644   0.000000000



     Writing output data file 17al_planar_2x2_vcr.save/
     NEW-OLD atomic charge density approx. for the potential

     negative rho (up, down):  4.681E-05 0.000E+00
     extrapolated charge   50.91713, renormalised to   51.00000

     total cpu time spent up to now is      479.1 secs

     Self-consistent Calculation

     iteration #  1     ecut=    80.00 Ry     beta= 0.40
     Davidson diagonalization with overlap
     ethr =  1.00E-06,  avg # of iterations =  7.0

     negative rho (up, down):  4.716E-05 0.000E+00

     total cpu time spent up to now is      493.1 secs

     total energy              =     -77.17529025 Ry
     Harris-Foulkes estimate   =     -77.57634186 Ry
     estimated scf accuracy    <       0.00109316 Ry

     iteration #  2     ecut=    80.00 Ry     beta= 0.40
     Davidson diagonalization with overlap
     ethr =  2.14E-06,  avg # of iterations =  5.0

     negative rho (up, down):  4.699E-05 0.000E+00

     total cpu time spent up to now is      503.6 secs

     total energy              =     -77.17537240 Ry
     Harris-Foulkes estimate   =     -77.17653654 Ry
     estimated scf accuracy    <       0.00638924 Ry

     iteration #  3     ecut=    80.00 Ry     beta= 0.40
     Davidson diagonalization with overlap
     ethr =  2.14E-06,  avg # of iterations =  5.0

     negative rho (up, down):  4.691E-05 0.000E+00

     total cpu time spent up to now is      512.8 secs

     total energy              =     -77.17584712 Ry
     Harris-Foulkes estimate   =     -77.17593717 Ry
     estimated scf accuracy    <       0.00044990 Ry

     iteration #  4     ecut=    80.00 Ry     beta= 0.40
     Davidson diagonalization with overlap
     ethr =  8.82E-07,  avg # of iterations =  5.0

     negative rho (up, down):  4.680E-05 0.000E+00

     total cpu time spent up to now is      520.7 secs

     total energy              =     -77.17586863 Ry
     Harris-Foulkes estimate   =     -77.17590593 Ry
     estimated scf accuracy    <       0.00020585 Ry

     iteration #  5     ecut=    80.00 Ry     beta= 0.40
     Davidson diagonalization with overlap
     ethr =  4.04E-07,  avg # of iterations =  4.0

     negative rho (up, down):  4.647E-05 0.000E+00

     total cpu time spent up to now is      528.2 secs

     total energy              =     -77.17587273 Ry
     Harris-Foulkes estimate   =     -77.17588924 Ry
     estimated scf accuracy    <       0.00006974 Ry

     iteration #  6     ecut=    80.00 Ry     beta= 0.40
     Davidson diagonalization with overlap
     ethr =  1.37E-07,  avg # of iterations =  4.0

     negative rho (up, down):  4.646E-05 0.000E+00

     total cpu time spent up to now is      536.3 secs

     total energy              =     -77.17588357 Ry
     Harris-Foulkes estimate   =     -77.17588939 Ry
     estimated scf accuracy    <       0.00002631 Ry

     iteration #  7     ecut=    80.00 Ry     beta= 0.40
     Davidson diagonalization with overlap
     ethr =  5.16E-08,  avg # of iterations =  4.0

     negative rho (up, down):  4.648E-05 0.000E+00

     total cpu time spent up to now is      544.1 secs

     total energy              =     -77.17588554 Ry
     Harris-Foulkes estimate   =     -77.17588849 Ry
     estimated scf accuracy    <       0.00001511 Ry

     iteration #  8     ecut=    80.00 Ry     beta= 0.40
     Davidson diagonalization with overlap
     ethr =  2.96E-08,  avg # of iterations =  1.0

     negative rho (up, down):  4.650E-05 0.000E+00

     total cpu time spent up to now is      551.2 secs

     total energy              =     -77.17588583 Ry
     Harris-Foulkes estimate   =     -77.17588674 Ry
     estimated scf accuracy    <       0.00000316 Ry

     iteration #  9     ecut=    80.00 Ry     beta= 0.40
     Davidson diagonalization with overlap
     ethr =  6.20E-09,  avg # of iterations =  4.0

     negative rho (up, down):  4.650E-05 0.000E+00

     total cpu time spent up to now is      560.6 secs

     total energy              =     -77.17588631 Ry
     Harris-Foulkes estimate   =     -77.17588726 Ry
     estimated scf accuracy    <       0.00000740 Ry

     iteration # 10     ecut=    80.00 Ry     beta= 0.40
     Davidson diagonalization with overlap
     ethr =  6.20E-09,  avg # of iterations =  2.0

     negative rho (up, down):  4.650E-05 0.000E+00

     total cpu time spent up to now is      567.6 secs

     total energy              =     -77.17588664 Ry
     Harris-Foulkes estimate   =     -77.17588681 Ry
     estimated scf accuracy    <       0.00000113 Ry

     iteration # 11     ecut=    80.00 Ry     beta= 0.40
     Davidson diagonalization with overlap
     ethr =  2.21E-09,  avg # of iterations =  3.0

     negative rho (up, down):  4.651E-05 0.000E+00

     total cpu time spent up to now is      575.2 secs

     End of self-consistent calculation

          k = 0.0000 0.0000 0.0000 (252395 PWs)   bands (ev):

    -9.9942  -9.1334  -9.1099  -9.1099  -9.0239  -9.0238  -8.3842  -7.5175
    -7.4521  -7.4521  -6.7837  -5.8673  -5.8274  -5.8274  -5.6320  -5.6318
    -4.7846  -4.7845  -3.9979  -3.7243  -3.2732  -3.2565  -3.2565  -3.2269
    -3.1265  -3.1148  -3.1147  -3.0739  -3.0738  -2.7020  -2.7018

     the Fermi energy is    -3.0976 ev

!    total energy              =     -77.17588648 Ry
     Harris-Foulkes estimate   =     -77.17588671 Ry
     estimated scf accuracy    <       0.00000032 Ry

     The total energy is the sum of the following terms:

     one-electron contribution =    -269.49915581 Ry
     hartree contribution      =     139.41833012 Ry
     xc contribution           =     -33.47895027 Ry
     ewald contribution        =      86.49752109 Ry
     smearing contrib. (-TS)   =      -0.11363162 Ry

     convergence has been achieved in  11 iterations

     negative rho (up, down):  4.651E-05 0.000E+00

     Forces acting on atoms (cartesian axes, Ry/au):

     atom    1 type  1   force =    -0.00611748   -0.00388828    0.00000000
     atom    2 type  1   force =    -0.00189351   -0.00109322    0.00000000
     atom    3 type  1   force =    -0.00001541   -0.00000890    0.00000000
     atom    4 type  1   force =     0.00189474   -0.00112345    0.00000000
     atom    5 type  1   force =     0.00000936    0.00000540    0.00000000
     atom    6 type  1   force =    -0.00070381    0.00042176    0.00000000
     atom    7 type  1   force =     0.00031812    0.00723009    0.00000000
     atom    8 type  1   force =    -0.00002557    0.00220262    0.00000000
     atom    9 type  1   force =    -0.00642609   -0.00335375    0.00000000
     atom   10 type  1   force =     0.00001334   -0.00082040    0.00000000
     atom   11 type  1   force =     0.00642050   -0.00333954    0.00000000
     atom   12 type  1   force =     0.01751532    0.01011248    0.00000000
     atom   13 type  1   force =     0.00610932   -0.00391749    0.00000000
     atom   14 type  1   force =     0.00000824   -0.02021356    0.00000000
     atom   15 type  1   force =    -0.00033798    0.00724957    0.00000000
     atom   16 type  1   force =     0.00073223    0.00042275    0.00000000
     atom   17 type  1   force =    -0.01750133    0.01011392    0.00000000

     Total force =     0.039471     Total SCF correction =     0.000480


     Computing stress (Cartesian axis) and pressure


     negative rho (up, down):  4.651E-05 0.000E+00
          total   stress  (Ry/bohr**3)                   (kbar)     P=   -1.29
  -0.00001311  -0.00000001   0.00000000         -1.93     -0.00      0.00
  -0.00000001  -0.00001310   0.00000000         -0.00     -1.93      0.00
   0.00000000   0.00000000  -0.00000001          0.00      0.00     -0.00


     number of scf cycles    =   5
     number of bfgs steps    =   4

     enthalpy old            =     -77.1705994439 Ry
     enthalpy new            =     -77.1758864773 Ry

     CASE: enthalpy_new < enthalpy_old

     new trust radius        =       0.1126517994 bohr
     new conv_thr            =       0.0000010000 Ry

     new unit-cell volume =  20755.22588 a.u.^3 (  3075.60712 Ang^3 )
     density =      0.27519 g/cm^3

CELL_PARAMETERS (alat= 25.26072511)
   0.996870463   0.000002214   0.000000000
  -0.498433314   0.863311824   0.000000000
   0.000000000   0.000000000   1.496177267

ATOMIC_POSITIONS (angstrom)
Al      -0.013798002   2.585474257   0.000000000
Al       2.221134135   1.282371717   0.000000000
Al       4.441964042   2.564606087   0.000000000
Al       6.662756389   1.282341439   0.000000000
Al      -2.220892701   6.411311371   0.000000000
Al       0.043188969   5.104241613   0.000000000
Al       2.195959528   6.413042649   0.000000000
Al       4.441919039   5.128980840   0.000000000
Al      -4.430586652  10.235647131   0.000000000
Al      -2.220774898   9.025578333   0.000000000
Al      -0.010967257  10.235588245   0.000000000
Al       2.355251683   9.053348217   0.000000000
Al       8.897513318   2.585503056   0.000000000
Al      11.104509533   1.127239696   0.000000000
Al       6.687835984   6.412812741   0.000000000
Al       8.840567452   5.104139604   0.000000000
Al       6.528473559   9.053239050   0.000000000



     Writing output data file 17al_planar_2x2_vcr.save/
     NEW-OLD atomic charge density approx. for the potential

     negative rho (up, down):  4.665E-05 0.000E+00
     extrapolated charge   50.86911, renormalised to   51.00000

     total cpu time spent up to now is      607.7 secs

     Self-consistent Calculation

     iteration #  1     ecut=    80.00 Ry     beta= 0.40
     Davidson diagonalization with overlap
     ethr =  1.00E-06,  avg # of iterations =  8.0

     negative rho (up, down):  4.713E-05 0.000E+00

     total cpu time spent up to now is      622.4 secs

     total energy              =     -77.18107282 Ry
     Harris-Foulkes estimate   =     -77.81609279 Ry
     estimated scf accuracy    <       0.00321585 Ry

     iteration #  2     ecut=    80.00 Ry     beta= 0.40
     Davidson diagonalization with overlap
     ethr =  6.31E-06,  avg # of iterations =  5.0

     negative rho (up, down):  4.686E-05 0.000E+00

     total cpu time spent up to now is      630.7 secs

     total energy              =     -77.18146025 Ry
     Harris-Foulkes estimate   =     -77.18478038 Ry
     estimated scf accuracy    <       0.01735081 Ry

     iteration #  3     ecut=    80.00 Ry     beta= 0.40
     Davidson diagonalization with overlap
     ethr =  6.31E-06,  avg # of iterations =  3.0

     negative rho (up, down):  4.682E-05 0.000E+00

     total cpu time spent up to now is      638.7 secs

     total energy              =     -77.18280179 Ry
     Harris-Foulkes estimate   =     -77.18298521 Ry
     estimated scf accuracy    <       0.00095538 Ry

     iteration #  4     ecut=    80.00 Ry     beta= 0.40
     Davidson diagonalization with overlap
     ethr =  1.87E-06,  avg # of iterations =  5.0

     negative rho (up, down):  4.670E-05 0.000E+00

     total cpu time spent up to now is      645.8 secs

     total energy              =     -77.18284581 Ry
     Harris-Foulkes estimate   =     -77.18293213 Ry
     estimated scf accuracy    <       0.00054016 Ry

     iteration #  5     ecut=    80.00 Ry     beta= 0.40
     Davidson diagonalization with overlap
     ethr =  1.06E-06,  avg # of iterations =  4.0

     negative rho (up, down):  4.613E-05 0.000E+00

     total cpu time spent up to now is      653.6 secs

     total energy              =     -77.18283512 Ry
     Harris-Foulkes estimate   =     -77.18288856 Ry
     estimated scf accuracy    <       0.00019203 Ry

     iteration #  6     ecut=    80.00 Ry     beta= 0.40
     Davidson diagonalization with overlap
     ethr =  3.77E-07,  avg # of iterations =  4.0

     negative rho (up, down):  4.612E-05 0.000E+00

     total cpu time spent up to now is      663.1 secs

     total energy              =     -77.18287630 Ry
     Harris-Foulkes estimate   =     -77.18288822 Ry
     estimated scf accuracy    <       0.00006882 Ry

     iteration #  7     ecut=    80.00 Ry     beta= 0.40
     Davidson diagonalization with overlap
     ethr =  1.35E-07,  avg # of iterations =  4.0

     negative rho (up, down):  4.613E-05 0.000E+00

     total cpu time spent up to now is      670.2 secs

     total energy              =     -77.18287781 Ry
     Harris-Foulkes estimate   =     -77.18288343 Ry
     estimated scf accuracy    <       0.00003779 Ry

     iteration #  8     ecut=    80.00 Ry     beta= 0.40
     Davidson diagonalization with overlap
     ethr =  7.41E-08,  avg # of iterations =  1.0

     negative rho (up, down):  4.615E-05 0.000E+00

     total cpu time spent up to now is      676.7 secs

     total energy              =     -77.18287380 Ry
     Harris-Foulkes estimate   =     -77.18287990 Ry
     estimated scf accuracy    <       0.00001637 Ry

     iteration #  9     ecut=    80.00 Ry     beta= 0.40
     Davidson diagonalization with overlap
     ethr =  3.21E-08,  avg # of iterations =  3.0

     negative rho (up, down):  4.615E-05 0.000E+00

     total cpu time spent up to now is      684.9 secs

     total energy              =     -77.18287818 Ry
     Harris-Foulkes estimate   =     -77.18287899 Ry
     estimated scf accuracy    <       0.00000764 Ry

     iteration # 10     ecut=    80.00 Ry     beta= 0.40
     Davidson diagonalization with overlap
     ethr =  1.50E-08,  avg # of iterations =  1.0

     negative rho (up, down):  4.615E-05 0.000E+00

     total cpu time spent up to now is      692.2 secs

     total energy              =     -77.18287833 Ry
     Harris-Foulkes estimate   =     -77.18287851 Ry
     estimated scf accuracy    <       0.00000342 Ry

     iteration # 11     ecut=    80.00 Ry     beta= 0.40
     Davidson diagonalization with overlap
     ethr =  6.70E-09,  avg # of iterations =  1.0

     negative rho (up, down):  4.612E-05 0.000E+00

     total cpu time spent up to now is      699.4 secs

     total energy              =     -77.18287749 Ry
     Harris-Foulkes estimate   =     -77.18287839 Ry
     estimated scf accuracy    <       0.00000269 Ry

     iteration # 12     ecut=    80.00 Ry     beta= 0.40
     Davidson diagonalization with overlap
     ethr =  5.27E-09,  avg # of iterations =  3.0

     negative rho (up, down):  4.613E-05 0.000E+00

     total cpu time spent up to now is      707.8 secs

     End of self-consistent calculation

          k = 0.0000 0.0000 0.0000 (252395 PWs)   bands (ev):

    -9.9938  -9.1209  -9.1167  -9.1166  -9.0061  -9.0060  -8.3837  -7.5060
    -7.4439  -7.4439  -6.8238  -5.8531  -5.8031  -5.8031  -5.6446  -5.6443
    -4.8055  -4.8054  -3.9955  -3.8671  -3.2907  -3.2350  -3.2349  -3.1779
    -3.1162  -3.1162  -3.1129  -3.0596  -3.0595  -2.6763  -2.6761

     the Fermi energy is    -3.0850 ev

!    total energy              =     -77.18287776 Ry
     Harris-Foulkes estimate   =     -77.18287821 Ry
     estimated scf accuracy    <       0.00000052 Ry

     The total energy is the sum of the following terms:

     one-electron contribution =    -269.78970705 Ry
     hartree contribution      =     139.54728564 Ry
     xc contribution           =     -33.45880256 Ry
     ewald contribution        =      86.62926071 Ry
     smearing contrib. (-TS)   =      -0.11091449 Ry

     convergence has been achieved in  12 iterations

     negative rho (up, down):  4.613E-05 0.000E+00

     Forces acting on atoms (cartesian axes, Ry/au):

     atom    1 type  1   force =    -0.00853566   -0.00898107    0.00000000
     atom    2 type  1   force =    -0.00318525   -0.00183900    0.00000000
     atom    3 type  1   force =    -0.00001142   -0.00000659    0.00000000
     atom    4 type  1   force =     0.00317751   -0.00184587    0.00000000
     atom    5 type  1   force =     0.00000241    0.00000139    0.00000000
     atom    6 type  1   force =    -0.00515566    0.00295961    0.00000000
     atom    7 type  1   force =     0.00351177    0.01184588    0.00000000
     atom    8 type  1   force =    -0.00000981    0.00367474    0.00000000
     atom    9 type  1   force =    -0.01204566   -0.00290156    0.00000000
     atom   10 type  1   force =    -0.00001473   -0.00594474    0.00000000
     atom   11 type  1   force =     0.01201472   -0.00288166    0.00000000
     atom   12 type  1   force =     0.01491320    0.00861014    0.00000000
     atom   13 type  1   force =     0.00852523   -0.00899136    0.00000000
     atom   14 type  1   force =     0.00003031   -0.01718755    0.00000000
     atom   15 type  1   force =    -0.00352413    0.01187874    0.00000000
     atom   16 type  1   force =     0.00517685    0.00298885    0.00000000
     atom   17 type  1   force =    -0.01486970    0.00862002    0.00000000

     Total force =     0.044201     Total SCF correction =     0.000603


     Computing stress (Cartesian axis) and pressure


     negative rho (up, down):  4.613E-05 0.000E+00
          total   stress  (Ry/bohr**3)                   (kbar)     P=   -1.55
  -0.00001584  -0.00000001   0.00000000         -2.33     -0.00      0.00
  -0.00000001  -0.00001583   0.00000000         -0.00     -2.33      0.00
   0.00000000   0.00000000   0.00000003          0.00      0.00      0.00


     number of scf cycles    =   6
     number of bfgs steps    =   5

     enthalpy old            =     -77.1758864773 Ry
     enthalpy new            =     -77.1828777588 Ry

     CASE: enthalpy_new < enthalpy_old

     new trust radius        =       0.1687610349 bohr
     new conv_thr            =       0.0000010000 Ry

     new unit-cell volume =  20670.02421 a.u.^3 (  3062.98153 Ang^3 )
     density =      0.27632 g/cm^3

CELL_PARAMETERS (alat= 25.26072511)
   0.994822786   0.000003145   0.000000000
  -0.497408670   0.861537088   0.000000000
   0.000000000   0.000000000   1.496177267

ATOMIC_POSITIONS (angstrom)
Al      -0.025483372   2.585803128   0.000000000
Al       2.214909470   1.278777907   0.000000000
Al       4.432879573   2.559361091   0.000000000
Al       6.650789130   1.278724563   0.000000000
Al      -2.216306375   6.398143444   0.000000000
Al       0.062680720   5.082489627   0.000000000
Al       2.180720457   6.407312982   0.000000000
Al       4.432803102   5.120425256   0.000000000
Al      -4.422447667  10.201639069   0.000000000
Al      -2.216169940   9.029610954   0.000000000
Al      -0.009851908  10.201531816   0.000000000
Al       2.427582056   9.079292337   0.000000000
Al       8.890926575   2.585823762   0.000000000
Al      11.081605067   1.035812515   0.000000000
Al       6.684820418   6.406947913   0.000000000
Al       8.802789300   5.082328304   0.000000000
Al       6.437843064   9.079116643   0.000000000



     Writing output data file 17al_planar_2x2_vcr.save/
     NEW-OLD atomic charge density approx. for the potential

     negative rho (up, down):  4.648E-05 0.000E+00
     extrapolated charge   50.78995, renormalised to   51.00000

     total cpu time spent up to now is      740.1 secs

     Self-consistent Calculation

     iteration #  1     ecut=    80.00 Ry     beta= 0.40
     Davidson diagonalization with overlap
     ethr =  1.00E-06,  avg # of iterations =  9.0

     negative rho (up, down):  4.711E-05 0.000E+00

     total cpu time spent up to now is      756.3 secs

     total energy              =     -77.18581928 Ry
     Harris-Foulkes estimate   =     -78.20905272 Ry
     estimated scf accuracy    <       0.00883758 Ry

     iteration #  2     ecut=    80.00 Ry     beta= 0.40
     Davidson diagonalization with overlap
     ethr =  1.73E-05,  avg # of iterations = 11.0

     negative rho (up, down):  4.665E-05 0.000E+00

     total cpu time spent up to now is      765.8 secs

     total energy              =     -77.18629853 Ry
     Harris-Foulkes estimate   =     -77.19672252 Ry
     estimated scf accuracy    <       0.05826945 Ry

     iteration #  3     ecut=    80.00 Ry     beta= 0.40
     Davidson diagonalization with overlap
     ethr =  1.73E-05,  avg # of iterations =  4.0

     negative rho (up, down):  4.638E-05 0.000E+00

     total cpu time spent up to now is      774.4 secs

     total energy              =     -77.19042749 Ry
     Harris-Foulkes estimate   =     -77.19070717 Ry
     estimated scf accuracy    <       0.00238492 Ry

     iteration #  4     ecut=    80.00 Ry     beta= 0.40
     Davidson diagonalization with overlap
     ethr =  4.68E-06,  avg # of iterations =  3.0

     negative rho (up, down):  4.568E-05 0.000E+00

     total cpu time spent up to now is      780.8 secs

     total energy              =     -77.19023634 Ry
     Harris-Foulkes estimate   =     -77.19052175 Ry
     estimated scf accuracy    <       0.00147097 Ry

     iteration #  5     ecut=    80.00 Ry     beta= 0.40
     Davidson diagonalization with overlap
     ethr =  2.88E-06,  avg # of iterations =  4.0

     negative rho (up, down):  4.483E-05 0.000E+00

     total cpu time spent up to now is      788.6 secs

     total energy              =     -77.19007067 Ry
     Harris-Foulkes estimate   =     -77.19043107 Ry
     estimated scf accuracy    <       0.00154591 Ry

     iteration #  6     ecut=    80.00 Ry     beta= 0.40
     Davidson diagonalization with overlap
     ethr =  2.88E-06,  avg # of iterations =  4.0

     negative rho (up, down):  4.495E-05 0.000E+00

     total cpu time spent up to now is      796.7 secs

     total energy              =     -77.19029132 Ry
     Harris-Foulkes estimate   =     -77.19031400 Ry
     estimated scf accuracy    <       0.00011106 Ry

     iteration #  7     ecut=    80.00 Ry     beta= 0.40
     Davidson diagonalization with overlap
     ethr =  2.18E-07,  avg # of iterations = 18.0

     negative rho (up, down):  4.499E-05 0.000E+00

     total cpu time spent up to now is      811.0 secs

     total energy              =     -77.19098242 Ry
     Harris-Foulkes estimate   =     -77.19101327 Ry
     estimated scf accuracy    <       0.00098038 Ry

     iteration #  8     ecut=    80.00 Ry     beta= 0.40
     Davidson diagonalization with overlap
     ethr =  2.18E-07,  avg # of iterations =  1.0

     negative rho (up, down):  4.500E-05 0.000E+00

     total cpu time spent up to now is      818.4 secs

     total energy              =     -77.19097354 Ry
     Harris-Foulkes estimate   =     -77.19098412 Ry
     estimated scf accuracy    <       0.00082896 Ry

     iteration #  9     ecut=    80.00 Ry     beta= 0.40
     Davidson diagonalization with overlap
     ethr =  2.18E-07,  avg # of iterations =  1.0

     negative rho (up, down):  4.510E-05 0.000E+00

     total cpu time spent up to now is      825.7 secs

     total energy              =     -77.19087249 Ry
     Harris-Foulkes estimate   =     -77.19097388 Ry
     estimated scf accuracy    <       0.00078644 Ry

     iteration # 10     ecut=    80.00 Ry     beta= 0.40
     Davidson diagonalization with overlap
     ethr =  2.18E-07,  avg # of iterations =  3.0

     negative rho (up, down):  4.533E-05 0.000E+00

     total cpu time spent up to now is      834.0 secs

     total energy              =     -77.19079794 Ry
     Harris-Foulkes estimate   =     -77.19088697 Ry
     estimated scf accuracy    <       0.00032021 Ry

     iteration # 11     ecut=    80.00 Ry     beta= 0.40
     Davidson diagonalization with overlap
     ethr =  2.18E-07,  avg # of iterations =  5.0

     negative rho (up, down):  4.537E-05 0.000E+00

     total cpu time spent up to now is      844.2 secs

     total energy              =     -77.19083092 Ry
     Harris-Foulkes estimate   =     -77.19083256 Ry
     estimated scf accuracy    <       0.00001053 Ry

     iteration # 12     ecut=    80.00 Ry     beta= 0.40
     Davidson diagonalization with overlap
     ethr =  2.06E-08,  avg # of iterations =  3.0

     negative rho (up, down):  4.543E-05 0.000E+00

     total cpu time spent up to now is      852.5 secs

     total energy              =     -77.19083074 Ry
     Harris-Foulkes estimate   =     -77.19083214 Ry
     estimated scf accuracy    <       0.00000490 Ry

     iteration # 13     ecut=    80.00 Ry     beta= 0.40
     Davidson diagonalization with overlap
     ethr =  9.61E-09,  avg # of iterations =  4.0

     negative rho (up, down):  4.542E-05 0.000E+00

     total cpu time spent up to now is      861.6 secs

     total energy              =     -77.19083120 Ry
     Harris-Foulkes estimate   =     -77.19083234 Ry
     estimated scf accuracy    <       0.00000399 Ry

     iteration # 14     ecut=    80.00 Ry     beta= 0.40
     Davidson diagonalization with overlap
     ethr =  7.83E-09,  avg # of iterations =  4.0

     negative rho (up, down):  4.543E-05 0.000E+00

     total cpu time spent up to now is      871.4 secs

     total energy              =     -77.19083198 Ry
     Harris-Foulkes estimate   =     -77.19083284 Ry
     estimated scf accuracy    <       0.00000718 Ry

     iteration # 15     ecut=    80.00 Ry     beta= 0.40
     Davidson diagonalization with overlap
     ethr =  7.83E-09,  avg # of iterations =  1.0

     negative rho (up, down):  4.545E-05 0.000E+00

     total cpu time spent up to now is      878.8 secs

     total energy              =     -77.19083126 Ry
     Harris-Foulkes estimate   =     -77.19083217 Ry
     estimated scf accuracy    <       0.00000327 Ry

     iteration # 16     ecut=    80.00 Ry     beta= 0.40
     Davidson diagonalization with overlap
     ethr =  6.41E-09,  avg # of iterations =  4.0

     negative rho (up, down):  4.548E-05 0.000E+00

     total cpu time spent up to now is      887.2 secs

     End of self-consistent calculation

          k = 0.0000 0.0000 0.0000 (252395 PWs)   bands (ev):

    -9.9942  -9.1256  -9.1254  -9.1015  -8.9850  -8.9847  -8.4034  -7.4900
    -7.4332  -7.4329  -6.8941  -5.8300  -5.7779  -5.7779  -5.6609  -5.6605
    -4.8361  -4.8360  -4.1086  -3.9933  -3.3117  -3.2022  -3.2022  -3.1162
    -3.1161  -3.1045  -3.0914  -3.0427  -3.0425  -2.6456  -2.6454

     the Fermi energy is    -3.0632 ev

!    total energy              =     -77.19083163 Ry
     Harris-Foulkes estimate   =     -77.19083180 Ry
     estimated scf accuracy    <       0.00000018 Ry

     The total energy is the sum of the following terms:

     one-electron contribution =    -270.30301211 Ry
     hartree contribution      =     139.77433621 Ry
     xc contribution           =     -33.43107711 Ry
     ewald contribution        =      86.88002848 Ry
     smearing contrib. (-TS)   =      -0.11110711 Ry

     convergence has been achieved in  16 iterations

     negative rho (up, down):  4.548E-05 0.000E+00

     Forces acting on atoms (cartesian axes, Ry/au):

     atom    1 type  1   force =    -0.01107183   -0.01651358    0.00000000
     atom    2 type  1   force =    -0.00481630   -0.00278069    0.00000000
     atom    3 type  1   force =    -0.00001727   -0.00000997    0.00000000
     atom    4 type  1   force =     0.00480132   -0.00280691    0.00000000
     atom    5 type  1   force =    -0.00002661   -0.00001536    0.00000000
     atom    6 type  1   force =    -0.01116347    0.00644602    0.00000000
     atom    7 type  1   force =     0.00877072    0.01779898    0.00000000
     atom    8 type  1   force =    -0.00003020    0.00556152    0.00000000
     atom    9 type  1   force =    -0.01983709   -0.00133170    0.00000000
     atom   10 type  1   force =     0.00000068   -0.01289086    0.00000000
     atom   11 type  1   force =     0.01979973   -0.00130382    0.00000000
     atom   12 type  1   force =     0.00912910    0.00527069    0.00000000
     atom   13 type  1   force =     0.01105269   -0.01651300    0.00000000
     atom   14 type  1   force =     0.00003973   -0.01050965    0.00000000
     atom   15 type  1   force =    -0.00877434    0.01782841    0.00000000
     atom   16 type  1   force =     0.01122491    0.00648070    0.00000000
     atom   17 type  1   force =    -0.00908176    0.00528923    0.00000000

     Total force =     0.057384     Total SCF correction =     0.000337


     Computing stress (Cartesian axis) and pressure


     negative rho (up, down):  4.548E-05 0.000E+00
          total   stress  (Ry/bohr**3)                   (kbar)     P=   -1.91
  -0.00001954  -0.00000002   0.00000000         -2.87     -0.00      0.00
  -0.00000002  -0.00001951   0.00000000         -0.00     -2.87      0.00
   0.00000000   0.00000000   0.00000002          0.00      0.00      0.00


     number of scf cycles    =   7
     number of bfgs steps    =   6

     enthalpy old            =     -77.1828777588 Ry
     enthalpy new            =     -77.1908316312 Ry

     CASE: enthalpy_new < enthalpy_old

     new trust radius        =       0.2526212995 bohr
     new conv_thr            =       0.0000010000 Ry

     new unit-cell volume =  20528.01620 a.u.^3 (  3041.93812 Ang^3 )
     density =      0.27823 g/cm^3

CELL_PARAMETERS (alat= 25.26072511)
   0.991400182   0.000004209   0.000000000
  -0.495696446   0.858571430   0.000000000
   0.000000000   0.000000000   1.496177267

ATOMIC_POSITIONS (angstrom)
Al      -0.046013550   2.578297421   0.000000000
Al       2.203144226   1.271985242   0.000000000
Al       4.417684130   2.550587870   0.000000000
Al       6.632135239   1.271881423   0.000000000
Al      -2.208675212   6.376120351   0.000000000
Al       0.087797766   5.050451988   0.000000000
Al       2.161726867   6.402620970   0.000000000
Al       4.417549822   5.107691961   0.000000000
Al      -4.416324855  10.147968786   0.000000000
Al      -2.208468798   9.027738421   0.000000000
Al      -0.000523964  10.147785345   0.000000000
Al       2.534572966   9.114634624   0.000000000
Al       8.880905552   2.578319134   0.000000000
Al      11.043336649   0.899038299   0.000000000
Al       6.673310818   6.402021452   0.000000000
Al       8.747140248   5.050199187   0.000000000
Al       6.300258907   9.114362085   0.000000000



     Writing output data file 17al_planar_2x2_vcr.save/
     NEW-OLD atomic charge density approx. for the potential

     negative rho (up, down):  4.681E-05 0.000E+00
     extrapolated charge   50.64748, renormalised to   51.00000

     total cpu time spent up to now is      918.5 secs

     Self-consistent Calculation

     iteration #  1     ecut=    80.00 Ry     beta= 0.40
     Davidson diagonalization with overlap
     ethr =  1.00E-06,  avg # of iterations = 10.0

     negative rho (up, down):  4.731E-05 0.000E+00

     total cpu time spent up to now is      934.5 secs

     total energy              =     -77.18619040 Ry
     Harris-Foulkes estimate   =     -78.91285277 Ry
     estimated scf accuracy    <       0.01994116 Ry

     iteration #  2     ecut=    80.00 Ry     beta= 0.40
     Davidson diagonalization with overlap
     ethr =  3.91E-05,  avg # of iterations =  8.0

     negative rho (up, down):  4.652E-05 0.000E+00

     total cpu time spent up to now is      946.2 secs

     total energy              =     -77.18822811 Ry
     Harris-Foulkes estimate   =     -77.21685396 Ry
     estimated scf accuracy    <       0.17541214 Ry

     iteration #  3     ecut=    80.00 Ry     beta= 0.40
     Davidson diagonalization with overlap
     ethr =  3.91E-05,  avg # of iterations =  4.0

     negative rho (up, down):  4.607E-05 0.000E+00

     total cpu time spent up to now is      956.4 secs

     total energy              =     -77.19961815 Ry
     Harris-Foulkes estimate   =     -77.20023023 Ry
     estimated scf accuracy    <       0.00665500 Ry

     iteration #  4     ecut=    80.00 Ry     beta= 0.40
     Davidson diagonalization with overlap
     ethr =  1.30E-05,  avg # of iterations =  2.0

     negative rho (up, down):  4.423E-05 0.000E+00

     total cpu time spent up to now is      963.8 secs

     total energy              =     -77.19885654 Ry
     Harris-Foulkes estimate   =     -77.19979790 Ry
     estimated scf accuracy    <       0.00450369 Ry

     iteration #  5     ecut=    80.00 Ry     beta= 0.40
     Davidson diagonalization with overlap
     ethr =  8.83E-06,  avg # of iterations =  3.0

     negative rho (up, down):  4.293E-05 0.000E+00

     total cpu time spent up to now is      971.3 secs

     total energy              =     -77.19863437 Ry
     Harris-Foulkes estimate   =     -77.19935262 Ry
     estimated scf accuracy    <       0.00311236 Ry

     iteration #  6     ecut=    80.00 Ry     beta= 0.40
     Davidson diagonalization with overlap
     ethr =  6.10E-06,  avg # of iterations =  4.0

     negative rho (up, down):  4.321E-05 0.000E+00

     total cpu time spent up to now is      979.1 secs

     total energy              =     -77.19911018 Ry
     Harris-Foulkes estimate   =     -77.19917324 Ry
     estimated scf accuracy    <       0.00036174 Ry

     iteration #  7     ecut=    80.00 Ry     beta= 0.40
     Davidson diagonalization with overlap
     ethr =  7.09E-07,  avg # of iterations =  4.0

     negative rho (up, down):  4.354E-05 0.000E+00

     total cpu time spent up to now is      989.8 secs

     total energy              =     -77.19914200 Ry
     Harris-Foulkes estimate   =     -77.19922243 Ry
     estimated scf accuracy    <       0.00055319 Ry

     iteration #  8     ecut=    80.00 Ry     beta= 0.40
     Davidson diagonalization with overlap
     ethr =  7.09E-07,  avg # of iterations =  1.0

     negative rho (up, down):  4.383E-05 0.000E+00

     total cpu time spent up to now is      997.8 secs

     total energy              =     -77.19912033 Ry
     Harris-Foulkes estimate   =     -77.19915951 Ry
     estimated scf accuracy    <       0.00020402 Ry

     iteration #  9     ecut=    80.00 Ry     beta= 0.40
     Davidson diagonalization with overlap
     ethr =  4.00E-07,  avg # of iterations = 18.0

     negative rho (up, down):  4.383E-05 0.000E+00

     total cpu time spent up to now is     1009.2 secs

     total energy              =     -77.19920212 Ry
     Harris-Foulkes estimate   =     -77.19920879 Ry
     estimated scf accuracy    <       0.00043681 Ry

     iteration # 10     ecut=    80.00 Ry     beta= 0.40
     Davidson diagonalization with overlap
     ethr =  4.00E-07,  avg # of iterations =  1.0

     negative rho (up, down):  4.400E-05 0.000E+00

     total cpu time spent up to now is     1017.5 secs

     total energy              =     -77.19919360 Ry
     Harris-Foulkes estimate   =     -77.19920432 Ry
     estimated scf accuracy    <       0.00040143 Ry

     iteration # 11     ecut=    80.00 Ry     beta= 0.40
     Davidson diagonalization with overlap
     ethr =  4.00E-07,  avg # of iterations =  1.0

     negative rho (up, down):  4.401E-05 0.000E+00

     total cpu time spent up to now is     1025.1 secs

     total energy              =     -77.19917402 Ry
     Harris-Foulkes estimate   =     -77.19919805 Ry
     estimated scf accuracy    <       0.00037830 Ry

     iteration # 12     ecut=    80.00 Ry     beta= 0.40
     Davidson diagonalization with overlap
     ethr =  4.00E-07,  avg # of iterations =  1.0

     negative rho (up, down):  4.411E-05 0.000E+00

     total cpu time spent up to now is     1033.1 secs

     total energy              =     -77.19916160 Ry
     Harris-Foulkes estimate   =     -77.19917771 Ry
     estimated scf accuracy    <       0.00026838 Ry

     iteration # 13     ecut=    80.00 Ry     beta= 0.40
     Davidson diagonalization with overlap
     ethr =  4.00E-07,  avg # of iterations =  1.0

     negative rho (up, down):  4.405E-05 0.000E+00

     total cpu time spent up to now is     1040.9 secs

     total energy              =     -77.19915121 Ry
     Harris-Foulkes estimate   =     -77.19916312 Ry
     estimated scf accuracy    <       0.00019618 Ry

     iteration # 14     ecut=    80.00 Ry     beta= 0.40
     Davidson diagonalization with overlap
     ethr =  3.85E-07,  avg # of iterations =  1.0

     negative rho (up, down):  4.403E-05 0.000E+00

     total cpu time spent up to now is     1049.4 secs

     total energy              =     -77.19915662 Ry
     Harris-Foulkes estimate   =     -77.19915335 Ry
     estimated scf accuracy    <       0.00014952 Ry

     iteration # 15     ecut=    80.00 Ry     beta= 0.40
     Davidson diagonalization with overlap
     ethr =  2.93E-07,  avg # of iterations =  1.0

     negative rho (up, down):  4.406E-05 0.000E+00

     total cpu time spent up to now is     1057.6 secs

     total energy              =     -77.19921174 Ry
     Harris-Foulkes estimate   =     -77.19915716 Ry
     estimated scf accuracy    <       0.00015855 Ry

     iteration # 16     ecut=    80.00 Ry     beta= 0.40
     Davidson diagonalization with overlap
     ethr =  2.93E-07,  avg # of iterations =  1.0

     negative rho (up, down):  4.406E-05 0.000E+00

     total cpu time spent up to now is     1065.7 secs

     total energy              =     -77.19923706 Ry
     Harris-Foulkes estimate   =     -77.19922466 Ry
     estimated scf accuracy    <       0.00047626 Ry

     iteration # 17     ecut=    80.00 Ry     beta= 0.40
     Davidson diagonalization with overlap
     ethr =  2.93E-07,  avg # of iterations =  1.0

     negative rho (up, down):  4.409E-05 0.000E+00

     total cpu time spent up to now is     1073.8 secs

     total energy              =     -77.19906688 Ry
     Harris-Foulkes estimate   =     -77.19923826 Ry
     estimated scf accuracy    <       0.00053365 Ry

     iteration # 18     ecut=    80.00 Ry     beta= 0.40
     Davidson diagonalization with overlap
     ethr =  2.93E-07,  avg # of iterations =  4.0

     negative rho (up, down):  4.406E-05 0.000E+00

     total cpu time spent up to now is     1084.6 secs

     total energy              =     -77.19912630 Ry
     Harris-Foulkes estimate   =     -77.19912840 Ry
     estimated scf accuracy    <       0.00001889 Ry

     iteration # 19     ecut=    80.00 Ry     beta= 0.40
     Davidson diagonalization with overlap
     ethr =  3.70E-08,  avg # of iterations =  7.0

     negative rho (up, down):  4.406E-05 0.000E+00

     total cpu time spent up to now is     1095.0 secs

     total energy              =     -77.19912853 Ry
     Harris-Foulkes estimate   =     -77.19912907 Ry
     estimated scf accuracy    <       0.00000968 Ry

     iteration # 20     ecut=    80.00 Ry     beta= 0.40
     Davidson diagonalization with overlap
     ethr =  1.90E-08,  avg # of iterations =  5.0

     negative rho (up, down):  4.404E-05 0.000E+00

     total cpu time spent up to now is     1103.5 secs

     total energy              =     -77.19912632 Ry
     Harris-Foulkes estimate   =     -77.19912883 Ry
     estimated scf accuracy    <       0.00000750 Ry

     iteration # 21     ecut=    80.00 Ry     beta= 0.40
     Davidson diagonalization with overlap
     c_bands:  1 eigenvalues not converged
     ethr =  1.47E-08,  avg # of iterations = 20.0

     negative rho (up, down):  4.407E-05 0.000E+00

     total cpu time spent up to now is     1117.0 secs

     total energy              =     -77.19917515 Ry
     Harris-Foulkes estimate   =     -77.19922012 Ry
     estimated scf accuracy    <       0.00042696 Ry

     iteration # 22     ecut=    80.00 Ry     beta= 0.40
     Davidson diagonalization with overlap
     ethr =  1.47E-08,  avg # of iterations =  4.0

     negative rho (up, down):  4.407E-05 0.000E+00

     total cpu time spent up to now is     1126.8 secs

     total energy              =     -77.19914726 Ry
     Harris-Foulkes estimate   =     -77.19917843 Ry
     estimated scf accuracy    <       0.00024227 Ry

     iteration # 23     ecut=    80.00 Ry     beta= 0.40
     Davidson diagonalization with overlap
     ethr =  1.47E-08,  avg # of iterations =  4.0

     negative rho (up, down):  4.408E-05 0.000E+00

     total cpu time spent up to now is     1136.7 secs

     total energy              =     -77.19914750 Ry
     Harris-Foulkes estimate   =     -77.19915075 Ry
     estimated scf accuracy    <       0.00010129 Ry

     iteration # 24     ecut=    80.00 Ry     beta= 0.40
     Davidson diagonalization with overlap
     ethr =  1.47E-08,  avg # of iterations =  1.0

     negative rho (up, down):  4.408E-05 0.000E+00

     total cpu time spent up to now is     1143.5 secs

     total energy              =     -77.19914889 Ry
     Harris-Foulkes estimate   =     -77.19914760 Ry
     estimated scf accuracy    <       0.00009115 Ry

     iteration # 25     ecut=    80.00 Ry     beta= 0.40
     Davidson diagonalization with overlap
     ethr =  1.47E-08,  avg # of iterations =  1.0

     negative rho (up, down):  4.410E-05 0.000E+00

     total cpu time spent up to now is     1150.7 secs

     total energy              =     -77.19913760 Ry
     Harris-Foulkes estimate   =     -77.19914899 Ry
     estimated scf accuracy    <       0.00009861 Ry

     iteration # 26     ecut=    80.00 Ry     beta= 0.40
     Davidson diagonalization with overlap
     ethr =  1.47E-08,  avg # of iterations =  2.0

     negative rho (up, down):  4.411E-05 0.000E+00

     total cpu time spent up to now is     1158.1 secs

     total energy              =     -77.19913141 Ry
[...]

          k = 0.0000 0.0000 0.0000 (252395 PWs)   bands (ev):

   -11.1672 -10.1100  -9.9928  -9.7261  -9.6047  -8.8038  -8.7436  -8.3485
    -8.1896  -6.5534  -6.1697  -5.9970  -5.5552  -5.1781  -5.0956  -4.9599
    -4.9201  -4.6904  -4.6125  -4.5998  -4.2912  -4.2519  -3.5143  -3.4581
    -3.2805  -3.2004  -2.3318  -2.2673  -1.9207  -1.8374  -1.4271

     the Fermi energy is    -2.9706 ev

!    total energy              =     -78.04107528 Ry
     Harris-Foulkes estimate   =     -78.04107528 Ry
     estimated scf accuracy    <          6.0E-10 Ry

     The total energy is the sum of the following terms:

     one-electron contribution =    -362.12677914 Ry
     hartree contribution      =     186.05807583 Ry
     xc contribution           =     -34.73875374 Ry
     ewald contribution        =     132.75493756 Ry
     smearing contrib. (-TS)   =       0.01144422 Ry

     convergence has been achieved in   3 iterations

     negative rho (up, down):  5.718E-06 0.000E+00

     Forces acting on atoms (cartesian axes, Ry/au):

     atom    1 type  1   force =     0.00000071    0.00000040    0.00000000
     atom    2 type  1   force =    -0.00000181   -0.00000105    0.00000000
     atom    3 type  1   force =    -0.00000197   -0.00000114    0.00000000
     atom    4 type  1   force =     0.00000110   -0.00000149    0.00000000
     atom    5 type  1   force =    -0.00000198   -0.00000114    0.00000000
     atom    6 type  1   force =     0.00000089   -0.00000013    0.00000000
     atom    7 type  1   force =     0.00000140   -0.00000088    0.00000000
     atom    8 type  1   force =    -0.00000074    0.00000169    0.00000000
     atom    9 type  1   force =     0.00000070    0.00000042    0.00000000
     atom   10 type  1   force =     0.00000034    0.00000083    0.00000000
     atom   11 type  1   force =    -0.00000006    0.00000165    0.00000000
     atom   12 type  1   force =     0.00000006    0.00000004    0.00000000
     atom   13 type  1   force =     0.00000134   -0.00000098    0.00000000
     atom   14 type  1   force =     0.00000070   -0.00000187    0.00000000
     atom   15 type  1   force =    -0.00000018    0.00000165    0.00000000
     atom   16 type  1   force =     0.00000077    0.00000044    0.00000000
     atom   17 type  1   force =    -0.00000127    0.00000154    0.00000000

     Total force =     0.000007     Total SCF correction =     0.000021
     SCF correction compared to forces is large: reduce conv_thr to get better values


     Computing stress (Cartesian axis) and pressure


     negative rho (up, down):  5.718E-06 0.000E+00
          total   stress  (Ry/bohr**3)                   (kbar)     P=   -0.00
   0.00000000   0.00000000   0.00000000          0.00      0.00      0.00
   0.00000000  -0.00000000   0.00000000          0.00     -0.00      0.00
   0.00000000   0.00000000  -0.00000001          0.00      0.00     -0.00


     bfgs converged in 154 scf cycles and 149 bfgs steps
     (criteria: energy <  1.0E-05 Ry, force <  1.0E-04Ry/Bohr, cell <  5.0E-05kbar)

     End of BFGS Geometry Optimization

     Final enthalpy =     -78.0410752811 Ry
Begin final coordinates
     new unit-cell volume =  15267.64993 a.u.^3 (  2262.43227 Ang^3 )
     density =      0.37410 g/cm^3

CELL_PARAMETERS (alat= 25.26072511)
   0.767951775  -0.208160202   0.000000000
  -0.564247910   0.977306049   0.000000000
   0.000000000   0.000000000   1.496177267

ATOMIC_POSITIONS (angstrom)
Al      -0.561903430   4.107154505   0.000000000
Al      -0.258187287  -0.149065262   0.000000000
Al       1.929922348   1.114283018   0.000000000
Al       4.221034315  -0.093162212   0.000000000
Al      -3.753740361   6.542199525   0.000000000
Al      -1.158437221   6.562726117   0.000000000
Al       1.445762020   6.193491281   0.000000000
Al       2.029829399   3.702139604   0.000000000
Al      -4.266612567  10.523944787   0.000000000
Al      -2.438282931   8.779507485   0.000000000
Al      -1.455986945  11.219491492   0.000000000
Al       0.244633452   8.850660199   0.000000000
Al       6.722086170   1.056486422   0.000000000
Al       8.499563945  -0.932601392   0.000000000
Al       4.275943362   5.293353620   0.000000000
Al       4.309634862   2.488209154   0.000000000
Al       3.442110983   7.827211239   0.000000000
End final coordinates



     Writing output data file 17al_planar_2x2_vcr.save/

     A final scf calculation at the relaxed structure.
     The G-vectors are recalculated for the final unit cell
     Results may differ from those at the preceding step.
 
     Parallelization info
     --------------------
     sticks:   dense  smooth     PW     G-vecs:    dense   smooth      PW
     Min        1287    1287    322               184467   184467   23072
     Max        1288    1288    323               184472   184472   23075
     Sum       10301   10301   2577              1475755  1475755  184583
 


     bravais-lattice index     =            4
     lattice parameter (alat)  =      25.2607  a.u.
     unit-cell volume          =   15267.6499 (a.u.)^3
     number of atoms/cell      =           17
     number of atomic types    =            1
     number of electrons       =        51.00
     number of Kohn-Sham states=           31
     kinetic-energy cutoff     =      80.0000  Ry
     charge density cutoff     =     320.0000  Ry
     convergence threshold     =      1.0E-08
     mixing beta               =       0.4000
     number of iterations used =            8  plain     mixing
     Exchange-correlation      = PBE ( 1  4  3  4 0 0)

     celldm(1)=  25.260725  celldm(2)=   0.000000  celldm(3)=   1.496177
     celldm(4)=   0.000000  celldm(5)=   0.000000  celldm(6)=   0.000000

     crystal axes: (cart. coord. in units of alat)
               a(1) = (   0.767952  -0.208160   0.000000 )  
               a(2) = (  -0.564248   0.977306   0.000000 )  
               a(3) = (   0.000000   0.000000   1.496177 )  

     reciprocal axes: (cart. coord. in units 2 pi/alat)
               b(1) = (  1.543757  0.891288  0.000000 )  
               b(2) = (  0.328811  1.213060  0.000000 )  
               b(3) = (  0.000000  0.000000  0.668370 )  


     PseudoPot. # 1 for Al read from file:
     ./Al.upf
     MD5 check sum: 4974d48a734c9d7d1eb6780a1419d19d
     Pseudo is Norm-conserving + core correction, Zval =  3.0
     Generated using ONCVPSP code by D. R. Hamann
     Using radial grid of 1876 points,  6 beta functions with: 
                l(1) =   0
                l(2) =   0
                l(3) =   1
                l(4) =   1
                l(5) =   2
                l(6) =   2

     atomic species   valence    mass     pseudopotential
        Al             3.00    29.98200     Al( 1.00)

      4 Sym. Ops. (no inversion) found ( 2 have fractional translation)



   Cartesian axes

     site n.     atom                  positions (alat units)
         1           Al  tau(   1) = (  -0.0420354   0.3072516   0.0000000  )
         2           Al  tau(   2) = (  -0.0193147  -0.0111514   0.0000000  )
         3           Al  tau(   3) = (   0.1443753   0.0833582   0.0000000  )
         4           Al  tau(   4) = (   0.3157708  -0.0069694   0.0000000  )
         5           Al  tau(   5) = (  -0.2808130   0.4894145   0.0000000  )
         6           Al  tau(   6) = (  -0.0866614   0.4909501   0.0000000  )
         7           Al  tau(   7) = (   0.1081558   0.4633280   0.0000000  )
         8           Al  tau(   8) = (   0.1518492   0.2769529   0.0000000  )
         9           Al  tau(   9) = (  -0.3191804   0.7872843   0.0000000  )
        10           Al  tau(  10) = (  -0.1824052   0.6567850   0.0000000  )
        11           Al  tau(  11) = (  -0.1089207   0.8393174   0.0000000  )
        12           Al  tau(  12) = (   0.0183008   0.6621078   0.0000000  )
        13           Al  tau(  13) = (   0.5028716   0.0790345   0.0000000  )
        14           Al  tau(  14) = (   0.6358427  -0.0697669   0.0000000  )
        15           Al  tau(  15) = (   0.3198785   0.3959898   0.0000000  )
        16           Al  tau(  16) = (   0.3223989   0.1861401   0.0000000  )
        17           Al  tau(  17) = (   0.2575004   0.5855448   0.0000000  )

     number of k points=     1  Methfessel-Paxton smearing, width (Ry)=  0.0500
                       cart. coord. in units 2pi/alat
        k(    1) = (   0.0000000   0.0000000   0.0000000), wk =   2.0000000

     Dense  grid:  1475755 G-vectors     FFT dimensions: ( 120, 180, 216)

     Estimated max dynamical RAM per process >     336.89 MB

     Estimated total dynamical RAM >       2.63 GB

     Initial potential from superposition of free atoms

     starting charge   50.95840, renormalised to   51.00000

     negative rho (up, down):  4.058E-05 0.000E+00
     Starting wfcs are   68 randomized atomic wfcs

     total cpu time spent up to now is    17514.7 secs

     Self-consistent Calculation

     iteration #  1     ecut=    80.00 Ry     beta= 0.40
     Davidson diagonalization with overlap
     ethr =  1.00E-06,  avg # of iterations = 14.0

     negative rho (up, down):  6.956E-06 0.000E+00

     total cpu time spent up to now is    17535.7 secs

     total energy              =     -78.04822792 Ry
     Harris-Foulkes estimate   =     -78.20715687 Ry
     estimated scf accuracy    <       0.45391573 Ry

     iteration #  2     ecut=    80.00 Ry     beta= 0.40
     Davidson diagonalization with overlap
     ethr =  8.90E-04,  avg # of iterations =  1.0

     negative rho (up, down):  5.721E-06 0.000E+00

     total cpu time spent up to now is    17542.5 secs

     total energy              =     -78.03001546 Ry
     Harris-Foulkes estimate   =     -78.07075516 Ry
     estimated scf accuracy    <       0.09716501 Ry

     iteration #  3     ecut=    80.00 Ry     beta= 0.40
     Davidson diagonalization with overlap
     ethr =  1.91E-04,  avg # of iterations =  3.0

     negative rho (up, down):  5.826E-06 0.000E+00

     total cpu time spent up to now is    17550.1 secs

     total energy              =     -78.03150867 Ry
     Harris-Foulkes estimate   =     -78.04794203 Ry
     estimated scf accuracy    <       0.05575699 Ry

     iteration #  4     ecut=    80.00 Ry     beta= 0.40
     Davidson diagonalization with overlap
     ethr =  1.09E-04,  avg # of iterations =  2.0

     negative rho (up, down):  5.873E-06 0.000E+00

     total cpu time spent up to now is    17557.3 secs

     total energy              =     -78.03946776 Ry
     Harris-Foulkes estimate   =     -78.04143428 Ry
     estimated scf accuracy    <       0.00725473 Ry

     iteration #  5     ecut=    80.00 Ry     beta= 0.40
     Davidson diagonalization with overlap
     ethr =  1.42E-05,  avg # of iterations =  3.0

     negative rho (up, down):  5.791E-06 0.000E+00

     total cpu time spent up to now is    17565.8 secs

     total energy              =     -78.04078275 Ry
     Harris-Foulkes estimate   =     -78.04106806 Ry
     estimated scf accuracy    <       0.00092824 Ry

     iteration #  6     ecut=    80.00 Ry     beta= 0.40
     Davidson diagonalization with overlap
     ethr =  1.82E-06,  avg # of iterations =  3.0

     negative rho (up, down):  5.772E-06 0.000E+00

     total cpu time spent up to now is    17573.5 secs

     total energy              =     -78.04094043 Ry
     Harris-Foulkes estimate   =     -78.04100090 Ry
     estimated scf accuracy    <       0.00019187 Ry

     iteration #  7     ecut=    80.00 Ry     beta= 0.40
     Davidson diagonalization with overlap
     ethr =  3.76E-07,  avg # of iterations =  3.0

     negative rho (up, down):  5.756E-06 0.000E+00

     total cpu time spent up to now is    17580.6 secs

     total energy              =     -78.04094935 Ry
     Harris-Foulkes estimate   =     -78.04099228 Ry
     estimated scf accuracy    <       0.00014551 Ry

     iteration #  8     ecut=    80.00 Ry     beta= 0.40
     Davidson diagonalization with overlap
     ethr =  2.85E-07,  avg # of iterations =  2.0

     negative rho (up, down):  5.744E-06 0.000E+00

     total cpu time spent up to now is    17587.4 secs

     total energy              =     -78.04096993 Ry
     Harris-Foulkes estimate   =     -78.04097325 Ry
     estimated scf accuracy    <       0.00001425 Ry

     iteration #  9     ecut=    80.00 Ry     beta= 0.40
     Davidson diagonalization with overlap
     ethr =  2.79E-08,  avg # of iterations =  3.0

     negative rho (up, down):  5.734E-06 0.000E+00

     total cpu time spent up to now is    17594.6 secs

     total energy              =     -78.04097213 Ry
     Harris-Foulkes estimate   =     -78.04097290 Ry
     estimated scf accuracy    <       0.00000200 Ry

     iteration # 10     ecut=    80.00 Ry     beta= 0.40
     Davidson diagonalization with overlap
     ethr =  3.92E-09,  avg # of iterations =  3.0

     negative rho (up, down):  5.725E-06 0.000E+00

     total cpu time spent up to now is    17602.3 secs

     total energy              =     -78.04097238 Ry
     Harris-Foulkes estimate   =     -78.04097261 Ry
     estimated scf accuracy    <       0.00000056 Ry

     iteration # 11     ecut=    80.00 Ry     beta= 0.40
     Davidson diagonalization with overlap
     ethr =  1.09E-09,  avg # of iterations =  3.0

     negative rho (up, down):  5.721E-06 0.000E+00

     total cpu time spent up to now is    17610.0 secs

     total energy              =     -78.04097243 Ry
     Harris-Foulkes estimate   =     -78.04097247 Ry
     estimated scf accuracy    <       0.00000015 Ry

     iteration # 12     ecut=    80.00 Ry     beta= 0.40
     Davidson diagonalization with overlap
     ethr =  2.95E-10,  avg # of iterations =  1.0

     negative rho (up, down):  5.719E-06 0.000E+00

     total cpu time spent up to now is    17617.1 secs

     total energy              =     -78.04097242 Ry
     Harris-Foulkes estimate   =     -78.04097244 Ry
     estimated scf accuracy    <       0.00000002 Ry

     iteration # 13     ecut=    80.00 Ry     beta= 0.40
     Davidson diagonalization with overlap
     ethr =  4.48E-11,  avg # of iterations =  4.0

     negative rho (up, down):  5.718E-06 0.000E+00

     total cpu time spent up to now is    17626.9 secs

     total energy              =     -78.04097241 Ry
     Harris-Foulkes estimate   =     -78.04097242 Ry
     estimated scf accuracy    <       0.00000002 Ry

     iteration # 14     ecut=    80.00 Ry     beta= 0.40
     Davidson diagonalization with overlap
     ethr =  4.48E-11,  avg # of iterations =  2.0

     negative rho (up, down):  5.717E-06 0.000E+00

     total cpu time spent up to now is    17633.8 secs

     End of self-consistent calculation

          k = 0.0000 0.0000 0.0000 (184583 PWs)   bands (ev):

   -11.1672 -10.1100  -9.9928  -9.7260  -9.6047  -8.8038  -8.7435  -8.3485
    -8.1895  -6.5534  -6.1697  -5.9970  -5.5552  -5.1781  -5.0955  -4.9599
    -4.9200  -4.6904  -4.6125  -4.5998  -4.2912  -4.2519  -3.5143  -3.4581
    -3.2805  -3.2004  -2.3318  -2.2673  -1.9208  -1.8374  -1.4272

     the Fermi energy is    -2.9706 ev

!    total energy              =     -78.04097241 Ry
     Harris-Foulkes estimate   =     -78.04097241 Ry
     estimated scf accuracy    <          6.5E-10 Ry

     The total energy is the sum of the following terms:

     one-electron contribution =    -362.12660201 Ry
     hartree contribution      =     186.05802873 Ry
     xc contribution           =     -34.73878193 Ry
     ewald contribution        =     132.75493756 Ry
     smearing contrib. (-TS)   =       0.01144525 Ry

     convergence has been achieved in  14 iterations

     negative rho (up, down):  5.717E-06 0.000E+00

     Forces acting on atoms (cartesian axes, Ry/au):

     atom    1 type  1   force =     0.00000028    0.00000118    0.00000000
     atom    2 type  1   force =    -0.00000027   -0.00000015    0.00000000
     atom    3 type  1   force =     0.00000345    0.00000199    0.00000000
     atom    4 type  1   force =    -0.00000000   -0.00000035    0.00000000
     atom    5 type  1   force =    -0.00000255   -0.00000147    0.00000000
     atom    6 type  1   force =     0.00000196   -0.00000377    0.00000000
     atom    7 type  1   force =    -0.00000030   -0.00000445    0.00000000
     atom    8 type  1   force =    -0.00000031    0.00000017    0.00000000
     atom    9 type  1   force =     0.00000116   -0.00000035    0.00000000
     atom   10 type  1   force =    -0.00000228    0.00000358    0.00000000
     atom   11 type  1   force =    -0.00000401    0.00000197    0.00000000
     atom   12 type  1   force =    -0.00000262   -0.00000151    0.00000000
     atom   13 type  1   force =     0.00000555   -0.00000079    0.00000000
     atom   14 type  1   force =     0.00000126    0.00000201    0.00000000
     atom   15 type  1   force =     0.00000210    0.00000520    0.00000000
     atom   16 type  1   force =    -0.00000579   -0.00000334    0.00000000
     atom   17 type  1   force =     0.00000237    0.00000008    0.00000000

     Total force =     0.000015     Total SCF correction =     0.000009
     SCF correction compared to forces is large: reduce conv_thr to get better values


     Computing stress (Cartesian axis) and pressure


     negative rho (up, down):  5.717E-06 0.000E+00
          total   stress  (Ry/bohr**3)                   (kbar)     P=    0.00
   0.00000002   0.00000000   0.00000000          0.00      0.00      0.00
   0.00000000   0.00000002   0.00000000          0.00      0.00      0.00
  -0.00000000  -0.00000000  -0.00000001         -0.00     -0.00     -0.00


     Writing output data file 17al_planar_2x2_vcr.save/
 
     init_run     :     20.07s CPU     22.66s WALL (       2 calls)
     electrons    :  12445.21s CPU  12787.16s WALL (     155 calls)
     update_pot   :   1346.11s CPU   1359.30s WALL (     153 calls)
     forces       :    961.69s CPU    988.06s WALL (     155 calls)
     stress       :   2359.35s CPU   2429.20s WALL (     155 calls)

     Called by init_run:
     wfcinit      :      8.37s CPU     10.52s WALL (       2 calls)
     potinit      :      4.44s CPU      4.70s WALL (       2 calls)
     hinit0       :      4.98s CPU      5.09s WALL (       2 calls)

     Called by electrons:
     c_bands      :   9554.95s CPU   9692.47s WALL (    1479 calls)
     sum_band     :   1702.08s CPU   1715.04s WALL (    1479 calls)
     v_of_rho     :    986.24s CPU   1124.49s WALL (    1612 calls)
     mix_rho      :    211.53s CPU    256.78s WALL (    1479 calls)

     Called by c_bands:
     init_us_2    :    183.67s CPU    185.01s WALL (    2960 calls)
     cegterg      :   8269.66s CPU   8403.33s WALL (    1479 calls)

     Called by sum_band:

     Called by *egterg:
     h_psi        :   7600.50s CPU   7690.36s WALL (    7050 calls)
     g_psi        :     23.77s CPU     23.84s WALL (    5569 calls)
     cdiaghg      :     15.61s CPU     15.68s WALL (    6873 calls)

     Called by h_psi:
     h_psi:pot    :   7584.74s CPU   7647.35s WALL (    7050 calls)
     h_psi:calbec :    504.34s CPU    504.94s WALL (    7050 calls)
     vloc_psi     :   6496.86s CPU   6558.55s WALL (    7050 calls)
     add_vuspsi   :    583.45s CPU    583.80s WALL (    7050 calls)

     General routines
     calbec       :    586.32s CPU    587.24s WALL (    7825 calls)
     fft          :    873.08s CPU    981.32s WALL (   20170 calls)
     ffts         :     79.37s CPU     79.96s WALL (    1479 calls)
     fftw         :   7062.76s CPU   7132.01s WALL (  312963 calls)
 
     Parallel routines
     fft_scatt_xy :    961.73s CPU    973.27s WALL (  334612 calls)
     fft_scatt_yz :   4319.71s CPU   4381.19s WALL (  334612 calls)
 
     PWSCF        :     4h45m CPU       45h 4m WALL

      54h
 
   This run was terminated on:  22:58: 4  25Nov2020            

=------------------------------------------------------------------------------=
   JOB DONE.
=------------------------------------------------------------------------------=
