
     Program PWSCF v.6.3MaX starts on 25Nov2020 at 17:58:55 

     This program is part of the open-source Quantum ESPRESSO suite
     for quantum simulation of materials; please cite
         "P. Giannozzi et al., J. Phys.:Condens. Matter 21 395502 (2009);
         "P. Giannozzi et al., J. Phys.:Condens. Matter 29 465901 (2017);
          URL http://www.quantum-espresso.org", 
     in publications or presentations arising from this work. More details at
     http://www.quantum-espresso.org/quote

     Parallel version (MPI), running on     8 processors

     MPI processes distributed on     2 nodes
     R & G space division:  proc/nbgrp/npool/nimage =       8
     Waiting for input...
     Reading input from standard input

     Current dimensions of program PWSCF are:
     Max number of different atomic species (ntypx) = 10
     Max number of k-points (npk) =  40000
     Max angular momentum in pseudopotentials (lmaxx) =  3

     Subspace diagonalization in iterative solution of the eigenvalue problem:
     a serial algorithm will be used

     Message from routine find_sym:
     Not a group! Trying with lower acceptance parameter...
     Message from routine find_sym:
     Symmetry operations form a group
 
     Parallelization info
     --------------------
     sticks:   dense  smooth     PW     G-vecs:    dense   smooth      PW
     Min        1758    1758    438               252392   252392   31546
     Max        1759    1759    439               252397   252397   31551
     Sum       14071   14071   3505              2019149  2019149  252395
 


     bravais-lattice index     =            4
     lattice parameter (alat)  =      25.2607  a.u.
     unit-cell volume          =   20885.8003 (a.u.)^3
     number of atoms/cell      =           17
     number of atomic types    =            1
     number of electrons       =        51.00
     number of Kohn-Sham states=           31
     kinetic-energy cutoff     =      80.0000  Ry
     charge density cutoff     =     320.0000  Ry
     convergence threshold     =      1.0E-06
     mixing beta               =       0.4000
     number of iterations used =            8  plain     mixing
     Exchange-correlation      = PBE ( 1  4  3  4 0 0)
     nstep                     =          300


     celldm(1)=  25.260725  celldm(2)=   0.000000  celldm(3)=   1.496177
     celldm(4)=   0.000000  celldm(5)=   0.000000  celldm(6)=   0.000000

     crystal axes: (cart. coord. in units of alat)
               a(1) = (   1.000000   0.000000   0.000000 )  
               a(2) = (  -0.500000   0.866025   0.000000 )  
               a(3) = (   0.000000   0.000000   1.496177 )  

     reciprocal axes: (cart. coord. in units 2 pi/alat)
               b(1) = (  1.000000  0.577350  0.000000 )  
               b(2) = (  0.000000  1.154701  0.000000 )  
               b(3) = (  0.000000  0.000000  0.668370 )  


     PseudoPot. # 1 for Al read from file:
     ./Al.upf
     MD5 check sum: 4974d48a734c9d7d1eb6780a1419d19d
     Pseudo is Norm-conserving + core correction, Zval =  3.0
     Generated using ONCVPSP code by D. R. Hamann
     Using radial grid of 1876 points,  6 beta functions with: 
                l(1) =   0
                l(2) =   0
                l(3) =   1
                l(4) =   1
                l(5) =   2
                l(6) =   2

     atomic species   valence    mass     pseudopotential
        Al             3.00    29.98200     Al( 1.00)

      2 Sym. Ops. (no inversion) found



   Cartesian axes

     site n.     atom                  positions (alat units)
         1           Al  tau(   1) = (   0.0000000   0.1924524   0.0000000  )
         2           Al  tau(   2) = (   0.1666687   0.0962261   0.0000000  )
         3           Al  tau(   3) = (   0.3333348   0.1924537   0.0000000  )
         4           Al  tau(   4) = (   0.5000036   0.0962275   0.0000000  )
         5           Al  tau(   5) = (  -0.1666663   0.4811295   0.0000000  )
         6           Al  tau(   6) = (   0.0000024   0.3849033   0.0000000  )
         7           Al  tau(   7) = (   0.1666686   0.4811309   0.0000000  )
         8           Al  tau(   8) = (   0.3333373   0.3849047   0.0000000  )
         9           Al  tau(   9) = (  -0.3333326   0.7698067   0.0000000  )
        10           Al  tau(  10) = (  -0.1666639   0.6735805   0.0000000  )
        11           Al  tau(  11) = (   0.0000023   0.7698081   0.0000000  )
        12           Al  tau(  12) = (   0.1666710   0.6735818   0.0000000  )
        13           Al  tau(  13) = (   0.6666697   0.1924551   0.0000000  )
        14           Al  tau(  14) = (   0.8333384   0.0962289   0.0000000  )
        15           Al  tau(  15) = (   0.5000035   0.4811323   0.0000000  )
        16           Al  tau(  16) = (   0.3333372   0.7698094   0.0000000  )
        17           Al  tau(  17) = (   0.5000059   0.6735832   0.0000000  )

     number of k points=     1  Methfessel-Paxton smearing, width (Ry)=  0.0500
                       cart. coord. in units 2pi/alat
        k(    1) = (   0.0000000   0.0000000   0.0000000), wk =   2.0000000

     Dense  grid:  2019149 G-vectors     FFT dimensions: ( 144, 144, 216)

     Estimated max dynamical RAM per process >     437.36 MB

     Estimated total dynamical RAM >       3.42 GB

     Initial potential from superposition of free atoms

     starting charge   50.95840, renormalised to   51.00000

     negative rho (up, down):  5.196E-05 0.000E+00
     Starting wfcs are   68 randomized atomic wfcs

     total cpu time spent up to now is       12.8 secs

     Self-consistent Calculation

     iteration #  1     ecut=    80.00 Ry     beta= 0.40
     Davidson diagonalization with overlap
     ethr =  1.00E-02,  avg # of iterations =  2.0

     total cpu time spent up to now is       21.2 secs

     total energy              =     -77.03418973 Ry
     Harris-Foulkes estimate   =     -77.31744457 Ry
     estimated scf accuracy    <       0.79357145 Ry

     iteration #  2     ecut=    80.00 Ry     beta= 0.40
     Davidson diagonalization with overlap
     ethr =  1.56E-03,  avg # of iterations =  4.0

     total cpu time spent up to now is       29.2 secs

     total energy              =     -77.00078916 Ry
     Harris-Foulkes estimate   =     -77.25638063 Ry
     estimated scf accuracy    <       0.83555029 Ry

     iteration #  3     ecut=    80.00 Ry     beta= 0.40
     Davidson diagonalization with overlap
     ethr =  1.56E-03,  avg # of iterations =  3.0

     total cpu time spent up to now is       36.6 secs

     total energy              =     -77.12545441 Ry
     Harris-Foulkes estimate   =     -77.19088351 Ry
     estimated scf accuracy    <       0.30550087 Ry

     iteration #  4     ecut=    80.00 Ry     beta= 0.40
     Davidson diagonalization with overlap
     ethr =  5.99E-04,  avg # of iterations =  2.0

     total cpu time spent up to now is       43.4 secs

     total energy              =     -77.14824953 Ry
     Harris-Foulkes estimate   =     -77.16544324 Ry
     estimated scf accuracy    <       0.07401486 Ry

     iteration #  5     ecut=    80.00 Ry     beta= 0.40
     Davidson diagonalization with overlap
     ethr =  1.45E-04,  avg # of iterations =  3.0

     total cpu time spent up to now is       50.4 secs

     total energy              =     -77.15908806 Ry
     Harris-Foulkes estimate   =     -77.16205171 Ry
     estimated scf accuracy    <       0.01633401 Ry

     iteration #  6     ecut=    80.00 Ry     beta= 0.40
     Davidson diagonalization with overlap
     ethr =  3.20E-05,  avg # of iterations =  5.0

     total cpu time spent up to now is       58.2 secs

     total energy              =     -77.16164997 Ry
     Harris-Foulkes estimate   =     -77.16216074 Ry
     estimated scf accuracy    <       0.00297529 Ry

     iteration #  7     ecut=    80.00 Ry     beta= 0.40
     Davidson diagonalization with overlap
     ethr =  5.83E-06,  avg # of iterations =  3.0

     total cpu time spent up to now is       65.7 secs

     total energy              =     -77.16201572 Ry
     Harris-Foulkes estimate   =     -77.16213481 Ry
     estimated scf accuracy    <       0.00041629 Ry

     iteration #  8     ecut=    80.00 Ry     beta= 0.40
     Davidson diagonalization with overlap
     ethr =  8.16E-07,  avg # of iterations =  4.0

     total cpu time spent up to now is       74.1 secs

     total energy              =     -77.16205433 Ry
     Harris-Foulkes estimate   =     -77.16218311 Ry
     estimated scf accuracy    <       0.00079743 Ry

     iteration #  9     ecut=    80.00 Ry     beta= 0.40
     Davidson diagonalization with overlap
     ethr =  8.16E-07,  avg # of iterations =  2.0

     total cpu time spent up to now is       80.9 secs

     total energy              =     -77.16210875 Ry
     Harris-Foulkes estimate   =     -77.16211941 Ry
     estimated scf accuracy    <       0.00004836 Ry

     iteration # 10     ecut=    80.00 Ry     beta= 0.40
     Davidson diagonalization with overlap
     ethr =  9.48E-08,  avg # of iterations =  4.0

     total cpu time spent up to now is       90.2 secs

     total energy              =     -77.16211495 Ry
     Harris-Foulkes estimate   =     -77.16212496 Ry
     estimated scf accuracy    <       0.00005622 Ry

     iteration # 11     ecut=    80.00 Ry     beta= 0.40
     Davidson diagonalization with overlap
     ethr =  9.48E-08,  avg # of iterations =  3.0

     total cpu time spent up to now is       97.7 secs

     total energy              =     -77.16211741 Ry
     Harris-Foulkes estimate   =     -77.16212226 Ry
     estimated scf accuracy    <       0.00002370 Ry

     iteration # 12     ecut=    80.00 Ry     beta= 0.40
     Davidson diagonalization with overlap
     ethr =  4.65E-08,  avg # of iterations =  2.0

     total cpu time spent up to now is      104.7 secs

     total energy              =     -77.16211958 Ry
     Harris-Foulkes estimate   =     -77.16211988 Ry
     estimated scf accuracy    <       0.00000140 Ry

     iteration # 13     ecut=    80.00 Ry     beta= 0.40
     Davidson diagonalization with overlap
     ethr =  2.75E-09,  avg # of iterations =  6.0

     total cpu time spent up to now is      115.3 secs

     total energy              =     -77.16211992 Ry
     Harris-Foulkes estimate   =     -77.16212062 Ry
     estimated scf accuracy    <       0.00000423 Ry

     iteration # 14     ecut=    80.00 Ry     beta= 0.40
     Davidson diagonalization with overlap
     ethr =  2.75E-09,  avg # of iterations =  3.0

     total cpu time spent up to now is      122.8 secs

     total energy              =     -77.16212012 Ry
     Harris-Foulkes estimate   =     -77.16212043 Ry
     estimated scf accuracy    <       0.00000190 Ry

     iteration # 15     ecut=    80.00 Ry     beta= 0.40
     Davidson diagonalization with overlap
     ethr =  2.75E-09,  avg # of iterations =  2.0

     total cpu time spent up to now is      128.8 secs

     End of self-consistent calculation

          k = 0.0000 0.0000 0.0000 (252395 PWs)   bands (ev):

    -9.9965  -9.1543  -9.0981  -9.0980  -9.0598  -9.0596  -8.4088  -7.5383
    -7.4674  -7.4673  -6.7264  -5.8850  -5.8792  -5.8791  -5.6093  -5.6093
    -4.7520  -4.7520  -4.0026  -3.5339  -3.3089  -3.2899  -3.2898  -3.2355
    -3.1475  -3.1134  -3.1133  -3.0990  -3.0989  -2.7512  -2.7511

     the Fermi energy is    -3.1136 ev

!    total energy              =     -77.16212009 Ry
     Harris-Foulkes estimate   =     -77.16212027 Ry
     estimated scf accuracy    <       0.00000020 Ry

     The total energy is the sum of the following terms:

     one-electron contribution =    -269.13901626 Ry
     hartree contribution      =     139.26321798 Ry
     xc contribution           =     -33.51703990 Ry
     ewald contribution        =      86.35193790 Ry
     smearing contrib. (-TS)   =      -0.12121982 Ry

     convergence has been achieved in  15 iterations

     Forces acting on atoms (cartesian axes, Ry/au):

     atom    1 type  1   force =     0.00063101   -0.00035478    0.00000000
     atom    2 type  1   force =     0.00001474    0.00001368    0.00000000
     atom    3 type  1   force =    -0.00060803   -0.00035754    0.00000000
     atom    4 type  1   force =     0.00063023   -0.00500927    0.00000000
     atom    5 type  1   force =    -0.01930131   -0.01113967    0.00000000
     atom    6 type  1   force =     0.00403734    0.00305746    0.00000000
     atom    7 type  1   force =     0.00001858   -0.00951692    0.00000000
     atom    8 type  1   force =    -0.00402658    0.00306390    0.00000000
     atom    9 type  1   force =     0.00002710    0.00070936    0.00000000
     atom   10 type  1   force =     0.00466319    0.00198241    0.00000000
     atom   11 type  1   force =    -0.00823749    0.00475236    0.00000000
     atom   12 type  1   force =    -0.00000561    0.00000414    0.00000000
     atom   13 type  1   force =    -0.00000772    0.02226595    0.00000000
     atom   14 type  1   force =    -0.00065709   -0.00500525    0.00000000
     atom   15 type  1   force =     0.01927493   -0.01113914    0.00000000
     atom   16 type  1   force =     0.00823675    0.00473555    0.00000000
     atom   17 type  1   force =    -0.00469003    0.00193775    0.00000000

     Total force =     0.043755     Total SCF correction =     0.000306


     Computing stress (Cartesian axis) and pressure

          total   stress  (Ry/bohr**3)                   (kbar)     P=   -0.80
  -0.00000821   0.00000000   0.00000000         -1.21      0.00      0.00
   0.00000000  -0.00000820   0.00000000          0.00     -1.21      0.00
   0.00000000   0.00000000   0.00000001          0.00      0.00      0.00


     BFGS Geometry Optimization

     number of scf cycles    =   1
     number of bfgs steps    =   0

     enthalpy new            =     -77.1621200935 Ry

     new trust radius        =       0.0222852594 bohr
     new conv_thr            =       0.0000010000 Ry

     new unit-cell volume =  20877.23015 a.u.^3 (  3093.68629 Ang^3 )
     density =      0.27358 g/cm^3

CELL_PARAMETERS (alat= 25.26072511)
   0.999794630   0.000000109   0.000000000
  -0.499897220   0.865847807   0.000000000
   0.000000000   0.000000000   1.496177267

ATOMIC_POSITIONS (angstrom)
Al       0.000334717   2.571872765   0.000000000
Al       2.227477132   1.286037210   0.000000000
Al       4.454583711   2.571889986   0.000000000
Al       6.682708471   1.283398401   0.000000000
Al      -2.237648698   6.424238581   0.000000000
Al       0.002168685   5.145719342   0.000000000
Al       2.227478554   6.425115806   0.000000000
Al       4.452808022   5.145741426   0.000000000
Al      -4.454859322  10.288579294   0.000000000
Al      -2.224936876   9.003222326   0.000000000
Al      -0.004326148  10.290737000   0.000000000
Al       2.227498713   9.002194368   0.000000000
Al       8.909807024   2.583878047   0.000000000
Al      11.136933094   1.283419208   0.000000000
Al       6.692572184   6.424276224   0.000000000
Al       4.459295557  10.290746787   0.000000000
Al       6.679926039   9.003236061   0.000000000



     Writing output data file 16al_planar_2x2_vcr.save/
     NEW-OLD atomic charge density approx. for the potential

     negative rho (up, down):  3.810E-07 0.000E+00
     extrapolated charge   50.97908, renormalised to   51.00000

     total cpu time spent up to now is      161.7 secs

     Self-consistent Calculation

     iteration #  1     ecut=    80.00 Ry     beta= 0.40
     Davidson diagonalization with overlap
     ethr =  1.00E-06,  avg # of iterations =  4.0

     negative rho (up, down):  1.935E-07 0.000E+00

     total cpu time spent up to now is      173.0 secs

     total energy              =     -77.16400315 Ry
     Harris-Foulkes estimate   =     -77.26503451 Ry
     estimated scf accuracy    <       0.00012702 Ry

     iteration #  2     ecut=    80.00 Ry     beta= 0.40
     Davidson diagonalization with overlap
     ethr =  2.49E-07,  avg # of iterations =  6.0

     negative rho (up, down):  1.671E-07 0.000E+00

     total cpu time spent up to now is      182.4 secs

     total energy              =     -77.16399321 Ry
     Harris-Foulkes estimate   =     -77.16412714 Ry
     estimated scf accuracy    <       0.00076283 Ry

     iteration #  3     ecut=    80.00 Ry     beta= 0.40
     Davidson diagonalization with overlap
     ethr =  2.49E-07,  avg # of iterations =  5.0

     negative rho (up, down):  1.194E-07 0.000E+00

     total cpu time spent up to now is      190.4 secs

     total energy              =     -77.16405398 Ry
     Harris-Foulkes estimate   =     -77.16406615 Ry
     estimated scf accuracy    <       0.00005333 Ry

     iteration #  4     ecut=    80.00 Ry     beta= 0.40
     Davidson diagonalization with overlap
     ethr =  1.05E-07,  avg # of iterations =  4.0

     negative rho (up, down):  8.108E-08 0.000E+00

     total cpu time spent up to now is      197.7 secs

     total energy              =     -77.16405795 Ry
     Harris-Foulkes estimate   =     -77.16406330 Ry
     estimated scf accuracy    <       0.00002312 Ry

     iteration #  5     ecut=    80.00 Ry     beta= 0.40
     Davidson diagonalization with overlap
     ethr =  4.53E-08,  avg # of iterations =  3.0

     negative rho (up, down):  3.123E-08 0.000E+00

     total cpu time spent up to now is      204.4 secs

     total energy              =     -77.16406048 Ry
     Harris-Foulkes estimate   =     -77.16406151 Ry
     estimated scf accuracy    <       0.00000439 Ry

     iteration #  6     ecut=    80.00 Ry     beta= 0.40
     Davidson diagonalization with overlap
     ethr =  8.62E-09,  avg # of iterations =  6.0

     negative rho (up, down):  1.901E-08 0.000E+00

     total cpu time spent up to now is      212.9 secs

     total energy              =     -77.16406047 Ry
     Harris-Foulkes estimate   =     -77.16406260 Ry
     estimated scf accuracy    <       0.00001232 Ry

     iteration #  7     ecut=    80.00 Ry     beta= 0.40
     Davidson diagonalization with overlap
     ethr =  8.62E-09,  avg # of iterations =  4.0

     negative rho (up, down):  1.134E-08 0.000E+00

     total cpu time spent up to now is      220.0 secs

     total energy              =     -77.16406159 Ry
     Harris-Foulkes estimate   =     -77.16406176 Ry
     estimated scf accuracy    <       0.00000102 Ry

     iteration #  8     ecut=    80.00 Ry     beta= 0.40
     Davidson diagonalization with overlap
     ethr =  2.01E-09,  avg # of iterations =  4.0

     total cpu time spent up to now is      226.6 secs

     End of self-consistent calculation

          k = 0.0000 0.0000 0.0000 (252395 PWs)   bands (ev):

    -9.9962  -9.1514  -9.0994  -9.0992  -9.0555  -9.0554  -8.4038  -7.5358
    -7.4655  -7.4654  -6.7337  -5.8834  -5.8716  -5.8716  -5.6128  -5.6128
    -4.7562  -4.7561  -4.0020  -3.5551  -3.2989  -3.2861  -3.2860  -3.2411
    -3.1448  -3.1120  -3.1119  -3.0974  -3.0974  -2.7445  -2.7444

     the Fermi energy is    -3.1119 ev

!    total energy              =     -77.16406164 Ry
     Harris-Foulkes estimate   =     -77.16406172 Ry
     estimated scf accuracy    <       0.00000019 Ry

     The total energy is the sum of the following terms:

     one-electron contribution =    -269.17409661 Ry
     hartree contribution      =     139.27824234 Ry
     xc contribution           =     -33.51192828 Ry
     ewald contribution        =      86.36391696 Ry
     smearing contrib. (-TS)   =      -0.12019604 Ry

     convergence has been achieved in   8 iterations

     Forces acting on atoms (cartesian axes, Ry/au):

     atom    1 type  1   force =     0.00023219   -0.00012870    0.00000000
     atom    2 type  1   force =     0.00000009    0.00001856    0.00000000
     atom    3 type  1   force =    -0.00022629   -0.00013796    0.00000000
     atom    4 type  1   force =     0.00148979   -0.00373962    0.00000000
     atom    5 type  1   force =    -0.01912218   -0.01104118    0.00000000
     atom    6 type  1   force =     0.00249360    0.00317587    0.00000000
     atom    7 type  1   force =     0.00001133   -0.00788399    0.00000000
     atom    8 type  1   force =    -0.00251302    0.00316536    0.00000000
     atom    9 type  1   force =     0.00000947    0.00024533    0.00000000
     atom   10 type  1   force =     0.00399863    0.00057560    0.00000000
     atom   11 type  1   force =    -0.00681549    0.00393487    0.00000000
     atom   12 type  1   force =    -0.00000462    0.00000617    0.00000000
     atom   13 type  1   force =    -0.00000141    0.02208383    0.00000000
     atom   14 type  1   force =    -0.00150168   -0.00374870    0.00000000
     atom   15 type  1   force =     0.01913020   -0.01104497    0.00000000
     atom   16 type  1   force =     0.00683044    0.00393046    0.00000000
     atom   17 type  1   force =    -0.00401104    0.00058910    0.00000000

     Total force =     0.041803     Total SCF correction =     0.000239


     Computing stress (Cartesian axis) and pressure

          total   stress  (Ry/bohr**3)                   (kbar)     P=   -0.87
  -0.00000887   0.00000001   0.00000000         -1.30      0.00      0.00
   0.00000001  -0.00000887   0.00000000          0.00     -1.30      0.00
   0.00000000   0.00000000   0.00000003          0.00      0.00      0.00


     number of scf cycles    =   2
     number of bfgs steps    =   1

     enthalpy old            =     -77.1621200935 Ry
     enthalpy new            =     -77.1640616432 Ry

     CASE: enthalpy_new < enthalpy_old


     WARNING: bfgs curvature condition failed, Theta= 0.838
     new trust radius        =       0.0334210302 bohr
     new conv_thr            =       0.0000010000 Ry

     new unit-cell volume =  20863.78760 a.u.^3 (  3091.69431 Ang^3 )
     density =      0.27375 g/cm^3

CELL_PARAMETERS (alat= 25.26072511)
   0.999472560   0.000000330   0.000000000
  -0.499735994   0.865569021   0.000000000
   0.000000000   0.000000000   1.496177267

ATOMIC_POSITIONS (angstrom)
Al       0.000675531   2.570854392   0.000000000
Al       2.226765641   1.285636680   0.000000000
Al       4.452820301   2.570867740   0.000000000
Al       6.681408846   1.279511681   0.000000000
Al      -2.252238230   6.413331289   0.000000000
Al       0.004757776   5.146548521   0.000000000
Al       2.226774274   6.416128362   0.000000000
Al       4.448782366   5.146569798   0.000000000
Al      -4.453407572  10.285643109   0.000000000
Al      -2.220772167   9.001330643   0.000000000
Al      -0.010308657  10.290879603   0.000000000
Al       2.226779071   8.999301602   0.000000000
Al       8.906933853   2.600722026   0.000000000
Al      11.132477633   1.279531327   0.000000000
Al       6.705722452   6.413369563   0.000000000
Al       4.463853314  10.290882034   0.000000000
Al       6.674314681   9.001334457   0.000000000



     Writing output data file 16al_planar_2x2_vcr.save/
     NEW-OLD atomic charge density approx. for the potential

     negative rho (up, down):  6.046E-07 0.000E+00
     extrapolated charge   50.96717, renormalised to   51.00000

     total cpu time spent up to now is      257.3 secs

     Self-consistent Calculation

     iteration #  1     ecut=    80.00 Ry     beta= 0.40
     Davidson diagonalization with overlap
     ethr =  1.00E-06,  avg # of iterations =  4.0

     negative rho (up, down):  3.121E-07 0.000E+00

     total cpu time spent up to now is      267.3 secs

     total energy              =     -77.16669036 Ry
     Harris-Foulkes estimate   =     -77.32530498 Ry
     estimated scf accuracy    <       0.00021647 Ry

     iteration #  2     ecut=    80.00 Ry     beta= 0.40
     Davidson diagonalization with overlap
     ethr =  4.24E-07,  avg # of iterations =  4.0

     negative rho (up, down):  2.601E-07 0.000E+00

     total cpu time spent up to now is      275.4 secs

     total energy              =     -77.16671523 Ry
     Harris-Foulkes estimate   =     -77.16686984 Ry
     estimated scf accuracy    <       0.00073467 Ry

     iteration #  3     ecut=    80.00 Ry     beta= 0.40
     Davidson diagonalization with overlap
     ethr =  4.24E-07,  avg # of iterations =  3.0

     negative rho (up, down):  1.833E-07 0.000E+00

     total cpu time spent up to now is      282.3 secs

     total energy              =     -77.16678033 Ry
     Harris-Foulkes estimate   =     -77.16679645 Ry
     estimated scf accuracy    <       0.00006754 Ry

     iteration #  4     ecut=    80.00 Ry     beta= 0.40
     Davidson diagonalization with overlap
     ethr =  1.32E-07,  avg # of iterations =  4.0

     negative rho (up, down):  1.277E-07 0.000E+00

     total cpu time spent up to now is      288.8 secs

     total energy              =     -77.16678302 Ry
     Harris-Foulkes estimate   =     -77.16679229 Ry
     estimated scf accuracy    <       0.00003950 Ry

     iteration #  5     ecut=    80.00 Ry     beta= 0.40
     Davidson diagonalization with overlap
     ethr =  7.75E-08,  avg # of iterations =  4.0

     negative rho (up, down):  3.675E-08 0.000E+00

     total cpu time spent up to now is      295.0 secs

     total energy              =     -77.16678738 Ry
     Harris-Foulkes estimate   =     -77.16679013 Ry
     estimated scf accuracy    <       0.00001563 Ry

     iteration #  6     ecut=    80.00 Ry     beta= 0.40
     Davidson diagonalization with overlap
     ethr =  3.06E-08,  avg # of iterations =  3.0

     negative rho (up, down):  2.354E-08 0.000E+00

     total cpu time spent up to now is      301.1 secs

     total energy              =     -77.16678854 Ry
     Harris-Foulkes estimate   =     -77.16679014 Ry
     estimated scf accuracy    <       0.00000706 Ry

     iteration #  7     ecut=    80.00 Ry     beta= 0.40
     Davidson diagonalization with overlap
     ethr =  1.38E-08,  avg # of iterations =  4.0

     negative rho (up, down):  1.595E-08 0.000E+00

     total cpu time spent up to now is      307.7 secs

     total energy              =     -77.16678948 Ry
     Harris-Foulkes estimate   =     -77.16678985 Ry
     estimated scf accuracy    <       0.00000197 Ry

     iteration #  8     ecut=    80.00 Ry     beta= 0.40
     Davidson diagonalization with overlap
     ethr =  3.85E-09,  avg # of iterations =  4.0

     total cpu time spent up to now is      314.9 secs

     End of self-consistent calculation

          k = 0.0000 0.0000 0.0000 (252395 PWs)   bands (ev):

    -9.9961  -9.1476  -9.1020  -9.1018  -9.0489  -9.0487  -8.3978  -7.5324
    -7.4629  -7.4629  -6.7447  -5.8809  -5.8613  -5.8613  -5.6178  -5.6177
    -4.7626  -4.7625  -4.0014  -3.5881  -3.2846  -3.2804  -3.2803  -3.2488
    -3.1411  -3.1122  -3.1121  -3.0934  -3.0932  -2.7351  -2.7350

     the Fermi energy is    -3.1096 ev

!    total energy              =     -77.16678933 Ry
     Harris-Foulkes estimate   =     -77.16678978 Ry
     estimated scf accuracy    <       0.00000070 Ry

     The total energy is the sum of the following terms:

     one-electron contribution =    -269.23307790 Ry
     hartree contribution      =     139.30411557 Ry
     xc contribution           =     -33.50465770 Ry
     ewald contribution        =      86.38550525 Ry
     smearing contrib. (-TS)   =      -0.11867454 Ry

     convergence has been achieved in   8 iterations

     Forces acting on atoms (cartesian axes, Ry/au):

     atom    1 type  1   force =    -0.00029951    0.00017706    0.00000000
     atom    2 type  1   force =    -0.00001520    0.00001277    0.00000000
     atom    3 type  1   force =     0.00030719    0.00016384    0.00000000
     atom    4 type  1   force =     0.00266010   -0.00197080    0.00000000
     atom    5 type  1   force =    -0.01887295   -0.01090194    0.00000000
     atom    6 type  1   force =     0.00038341    0.00328542    0.00000000
     atom    7 type  1   force =    -0.00001376   -0.00570441    0.00000000
     atom    8 type  1   force =    -0.00040523    0.00328392    0.00000000
     atom    9 type  1   force =     0.00001091   -0.00035492    0.00000000
     atom   10 type  1   force =     0.00304528   -0.00131410    0.00000000
     atom   11 type  1   force =    -0.00494645    0.00283871    0.00000000
     atom   12 type  1   force =     0.00000029    0.00000001    0.00000000
     atom   13 type  1   force =     0.00000666    0.02179863    0.00000000
     atom   14 type  1   force =    -0.00265174   -0.00197327    0.00000000
     atom   15 type  1   force =     0.01889797   -0.01090578    0.00000000
     atom   16 type  1   force =     0.00493825    0.00285124    0.00000000
     atom   17 type  1   force =    -0.00304523   -0.00128638    0.00000000

     Total force =     0.039874     Total SCF correction =     0.000567


     Computing stress (Cartesian axis) and pressure

          total   stress  (Ry/bohr**3)                   (kbar)     P=   -0.96
  -0.00000981   0.00000000   0.00000000         -1.44      0.00      0.00
   0.00000000  -0.00000981   0.00000000          0.00     -1.44      0.00
   0.00000000   0.00000000   0.00000006          0.00      0.00      0.01


     number of scf cycles    =   3
     number of bfgs steps    =   2

     enthalpy old            =     -77.1640616432 Ry
     enthalpy new            =     -77.1667893282 Ry

     CASE: enthalpy_new < enthalpy_old

     new trust radius        =       0.0501154092 bohr
     new conv_thr            =       0.0000010000 Ry

     new unit-cell volume =  20842.33871 a.u.^3 (  3088.51591 Ang^3 )
     density =      0.27404 g/cm^3

CELL_PARAMETERS (alat= 25.26072511)
   0.998958498   0.000000500   0.000000000
  -0.499478816   0.865124055   0.000000000
   0.000000000   0.000000000   1.496177267

ATOMIC_POSITIONS (angstrom)
Al       0.000859563   2.569435201   0.000000000
Al       2.225620006   1.284991532   0.000000000
Al       4.450366031   2.569439763   0.000000000
Al       6.679986762   1.274711030   0.000000000
Al      -2.274033385   6.396780638   0.000000000
Al       0.007351915   5.147719932   0.000000000
Al       2.225631618   6.403738671   0.000000000
Al       4.443894157   5.147746435   0.000000000
Al      -4.451091391  10.280552258   0.000000000
Al      -2.215022062   8.997050288   0.000000000
Al      -0.018178597  10.290124351   0.000000000
Al       2.225632381   8.994678536   0.000000000
Al       8.902352770   2.625882305   0.000000000
Al      11.124727342   1.274733498   0.000000000
Al       6.725227731   6.396818688   0.000000000
Al       4.469428377  10.290125487   0.000000000
Al       6.666261022   8.997043340   0.000000000



     Writing output data file 16al_planar_2x2_vcr.save/
     NEW-OLD atomic charge density approx. for the potential

     negative rho (up, down):  9.286E-07 0.000E+00
     extrapolated charge   50.94756, renormalised to   51.00000

     total cpu time spent up to now is      345.8 secs

     Self-consistent Calculation

     iteration #  1     ecut=    80.00 Ry     beta= 0.40
     Davidson diagonalization with overlap
     ethr =  1.00E-06,  avg # of iterations =  5.0

     negative rho (up, down):  4.853E-07 0.000E+00

     total cpu time spent up to now is      359.0 secs

     total energy              =     -77.17039014 Ry
     Harris-Foulkes estimate   =     -77.42386329 Ry
     estimated scf accuracy    <       0.00040736 Ry

     iteration #  2     ecut=    80.00 Ry     beta= 0.40
     Davidson diagonalization with overlap
     ethr =  7.99E-07,  avg # of iterations =  5.0

     negative rho (up, down):  4.080E-07 0.000E+00

     total cpu time spent up to now is      369.1 secs

     total energy              =     -77.17045454 Ry
     Harris-Foulkes estimate   =     -77.17076949 Ry
     estimated scf accuracy    <       0.00156405 Ry

     iteration #  3     ecut=    80.00 Ry     beta= 0.40
     Davidson diagonalization with overlap
     ethr =  7.99E-07,  avg # of iterations =  3.0

     negative rho (up, down):  3.091E-07 0.000E+00

     total cpu time spent up to now is      377.4 secs

     total energy              =     -77.17057969 Ry
     Harris-Foulkes estimate   =     -77.17061353 Ry
     estimated scf accuracy    <       0.00015167 Ry

     iteration #  4     ecut=    80.00 Ry     beta= 0.40
     Davidson diagonalization with overlap
     ethr =  2.97E-07,  avg # of iterations =  3.0

     negative rho (up, down):  2.279E-07 0.000E+00

     total cpu time spent up to now is      384.2 secs

     total energy              =     -77.17058427 Ry
     Harris-Foulkes estimate   =     -77.17060419 Ry
     estimated scf accuracy    <       0.00009651 Ry

     iteration #  5     ecut=    80.00 Ry     beta= 0.40
     Davidson diagonalization with overlap
     ethr =  1.89E-07,  avg # of iterations =  2.0

     negative rho (up, down):  6.524E-08 0.000E+00

     total cpu time spent up to now is      390.5 secs

     total energy              =     -77.17059138 Ry
     Harris-Foulkes estimate   =     -77.17059785 Ry
     estimated scf accuracy    <       0.00003254 Ry

     iteration #  6     ecut=    80.00 Ry     beta= 0.40
     Davidson diagonalization with overlap
     ethr =  6.38E-08,  avg # of iterations =  3.0

     negative rho (up, down):  3.598E-08 0.000E+00

     total cpu time spent up to now is      397.4 secs

     total energy              =     -77.17059370 Ry
     Harris-Foulkes estimate   =     -77.17059945 Ry
     estimated scf accuracy    <       0.00002821 Ry

     iteration #  7     ecut=    80.00 Ry     beta= 0.40
     Davidson diagonalization with overlap
     ethr =  5.53E-08,  avg # of iterations =  2.0

     negative rho (up, down):  2.359E-08 0.000E+00

     total cpu time spent up to now is      404.5 secs

     total energy              =     -77.17059666 Ry
     Harris-Foulkes estimate   =     -77.17059727 Ry
     estimated scf accuracy    <       0.00000290 Ry

     iteration #  8     ecut=    80.00 Ry     beta= 0.40
     Davidson diagonalization with overlap
     ethr =  5.69E-09,  avg # of iterations =  4.0

     negative rho (up, down):  1.418E-08 0.000E+00

     total cpu time spent up to now is      413.6 secs

     total energy              =     -77.17059703 Ry
     Harris-Foulkes estimate   =     -77.17059733 Ry
     estimated scf accuracy    <       0.00000146 Ry

     iteration #  9     ecut=    80.00 Ry     beta= 0.40
     Davidson diagonalization with overlap
     ethr =  2.86E-09,  avg # of iterations =  5.0

     total cpu time spent up to now is      421.8 secs

     total energy              =     -77.17059706 Ry
     Harris-Foulkes estimate   =     -77.17059735 Ry
     estimated scf accuracy    <       0.00000165 Ry

     iteration # 10     ecut=    80.00 Ry     beta= 0.40
     Davidson diagonalization with overlap
     ethr =  2.86E-09,  avg # of iterations =  4.0

     total cpu time spent up to now is      428.9 secs

     End of self-consistent calculation

          k = 0.0000 0.0000 0.0000 (252395 PWs)   bands (ev):

    -9.9952  -9.1417  -9.1053  -9.1051  -9.0382  -9.0381  -8.3906  -7.5262
    -7.4584  -7.4583  -6.7599  -5.8758  -5.8467  -5.8467  -5.6236  -5.6235
    -4.7712  -4.7712  -3.9999  -3.6399  -3.2709  -3.2708  -3.2660  -3.2544
    -3.1352  -3.1132  -3.1131  -3.0853  -3.0852  -2.7211  -2.7211

     the Fermi energy is    -3.1050 ev

!    total energy              =     -77.17059710 Ry
     Harris-Foulkes estimate   =     -77.17059725 Ry
     estimated scf accuracy    <       0.00000019 Ry

     The total energy is the sum of the following terms:

     one-electron contribution =    -269.33188660 Ry
     hartree contribution      =     139.34611942 Ry
     xc contribution           =     -33.49393206 Ry
     ewald contribution        =      86.42560215 Ry
     smearing contrib. (-TS)   =      -0.11650001 Ry

     convergence has been achieved in  10 iterations

     Forces acting on atoms (cartesian axes, Ry/au):

     atom    1 type  1   force =    -0.00098014    0.00056465    0.00000000
     atom    2 type  1   force =    -0.00000869    0.00001649    0.00000000
     atom    3 type  1   force =     0.00097773    0.00057401    0.00000000
     atom    4 type  1   force =     0.00414997    0.00044162    0.00000000
     atom    5 type  1   force =    -0.01845855   -0.01066499    0.00000000
     atom    6 type  1   force =    -0.00245321    0.00338005    0.00000000
     atom    7 type  1   force =    -0.00000267   -0.00289691    0.00000000
     atom    8 type  1   force =     0.00244569    0.00337190    0.00000000
     atom    9 type  1   force =    -0.00001792   -0.00113100    0.00000000
     atom   10 type  1   force =     0.00170937   -0.00383409    0.00000000
     atom   11 type  1   force =    -0.00249662    0.00144682    0.00000000
     atom   12 type  1   force =    -0.00000651   -0.00000692    0.00000000
     atom   13 type  1   force =     0.00000758    0.02132152    0.00000000
     atom   14 type  1   force =    -0.00414171    0.00043552    0.00000000
     atom   15 type  1   force =     0.01846620   -0.01066411    0.00000000
     atom   16 type  1   force =     0.00251272    0.00145603    0.00000000
     atom   17 type  1   force =    -0.00170322   -0.00381061    0.00000000

     Total force =     0.038696     Total SCF correction =     0.000312


     Computing stress (Cartesian axis) and pressure

          total   stress  (Ry/bohr**3)                   (kbar)     P=   -1.09
  -0.00001116  -0.00000000   0.00000000         -1.64     -0.00      0.00
  -0.00000000  -0.00001117   0.00000000         -0.00     -1.64      0.00
   0.00000000   0.00000000   0.00000003          0.00      0.00      0.00


     number of scf cycles    =   4
     number of bfgs steps    =   3

     enthalpy old            =     -77.1667893282 Ry
     enthalpy new            =     -77.1705970985 Ry

     CASE: enthalpy_new < enthalpy_old

     new trust radius        =       0.0751344676 bohr
     new conv_thr            =       0.0000010000 Ry

     new unit-cell volume =  20808.48307 a.u.^3 (  3083.49902 Ang^3 )
     density =      0.27448 g/cm^3

CELL_PARAMETERS (alat= 25.26072511)
   0.998146567   0.000000669   0.000000000
  -0.499072704   0.864421272   0.000000000
   0.000000000   0.000000000   1.496177267

ATOMIC_POSITIONS (angstrom)
Al       0.000773710   2.567406980   0.000000000
Al       2.223818287   1.283974250   0.000000000
Al       4.446858319   2.567414585   0.000000000
Al       6.678392221   1.268737807   0.000000000
Al      -2.306587768   6.371719221   0.000000000
Al       0.009726082   5.149338849   0.000000000
Al       2.223837982   6.386317406   0.000000000
Al       4.437908483   5.149368204   0.000000000
Al      -4.447454669  10.272083317   0.000000000
Al      -2.207003691   8.988903550   0.000000000
Al      -0.028734416  10.287867118   0.000000000
Al       2.223815064   8.987371903   0.000000000
Al       8.895115975   2.663460214   0.000000000
Al      11.111830988   1.268761641   0.000000000
Al       6.754147122   6.371759760   0.000000000
Al       4.476377067  10.287860218   0.000000000
Al       6.654604973   8.988870215   0.000000000



     Writing output data file 16al_planar_2x2_vcr.save/
     NEW-OLD atomic charge density approx. for the potential

     negative rho (up, down):  1.409E-06 0.000E+00
     extrapolated charge   50.91709, renormalised to   51.00000

     total cpu time spent up to now is      461.1 secs

     Self-consistent Calculation

     iteration #  1     ecut=    80.00 Ry     beta= 0.40
     Davidson diagonalization with overlap
     ethr =  1.00E-06,  avg # of iterations =  7.0

     negative rho (up, down):  7.495E-07 0.000E+00

     total cpu time spent up to now is      475.1 secs

     total energy              =     -77.17532855 Ry
     Harris-Foulkes estimate   =     -77.57652963 Ry
     estimated scf accuracy    <       0.00100836 Ry

     iteration #  2     ecut=    80.00 Ry     beta= 0.40
     Davidson diagonalization with overlap
     ethr =  1.98E-06,  avg # of iterations =  5.0

     negative rho (up, down):  6.353E-07 0.000E+00

     total cpu time spent up to now is      484.9 secs

     total energy              =     -77.17548545 Ry
     Harris-Foulkes estimate   =     -77.17640184 Ry
     estimated scf accuracy    <       0.00471420 Ry

     iteration #  3     ecut=    80.00 Ry     beta= 0.40
     Davidson diagonalization with overlap
     ethr =  1.98E-06,  avg # of iterations =  3.0

     negative rho (up, down):  4.968E-07 0.000E+00

     total cpu time spent up to now is      493.2 secs

     total energy              =     -77.17585033 Ry
     Harris-Foulkes estimate   =     -77.17591547 Ry
     estimated scf accuracy    <       0.00031410 Ry

     iteration #  4     ecut=    80.00 Ry     beta= 0.40
     Davidson diagonalization with overlap
     ethr =  6.16E-07,  avg # of iterations =  5.0

     negative rho (up, down):  3.792E-07 0.000E+00

     total cpu time spent up to now is      501.9 secs

     total energy              =     -77.17585838 Ry
     Harris-Foulkes estimate   =     -77.17589749 Ry
     estimated scf accuracy    <       0.00021636 Ry

     iteration #  5     ecut=    80.00 Ry     beta= 0.40
     Davidson diagonalization with overlap
     ethr =  4.24E-07,  avg # of iterations =  4.0

     negative rho (up, down):  6.277E-08 0.000E+00

     total cpu time spent up to now is      510.1 secs

     total energy              =     -77.17586487 Ry
     Harris-Foulkes estimate   =     -77.17588131 Ry
     estimated scf accuracy    <       0.00007265 Ry

     iteration #  6     ecut=    80.00 Ry     beta= 0.40
     Davidson diagonalization with overlap
     ethr =  1.42E-07,  avg # of iterations =  4.0

     negative rho (up, down):  4.580E-08 0.000E+00

     total cpu time spent up to now is      519.2 secs

     total energy              =     -77.17587540 Ry
     Harris-Foulkes estimate   =     -77.17588155 Ry
     estimated scf accuracy    <       0.00002995 Ry

     iteration #  7     ecut=    80.00 Ry     beta= 0.40
     Davidson diagonalization with overlap
     ethr =  5.87E-08,  avg # of iterations =  3.0

     negative rho (up, down):  3.545E-08 0.000E+00

     total cpu time spent up to now is      526.7 secs

     total energy              =     -77.17587726 Ry
     Harris-Foulkes estimate   =     -77.17588018 Ry
     estimated scf accuracy    <       0.00001633 Ry

     iteration #  8     ecut=    80.00 Ry     beta= 0.40
     Davidson diagonalization with overlap
     ethr =  3.20E-08,  avg # of iterations =  1.0

     total cpu time spent up to now is      533.5 secs

     total energy              =     -77.17587737 Ry
     Harris-Foulkes estimate   =     -77.17587858 Ry
     estimated scf accuracy    <       0.00000372 Ry

     iteration #  9     ecut=    80.00 Ry     beta= 0.40
     Davidson diagonalization with overlap
     ethr =  7.30E-09,  avg # of iterations =  3.0

     total cpu time spent up to now is      541.7 secs

     total energy              =     -77.17587833 Ry
     Harris-Foulkes estimate   =     -77.17587866 Ry
     estimated scf accuracy    <       0.00000207 Ry

     iteration # 10     ecut=    80.00 Ry     beta= 0.40
     Davidson diagonalization with overlap
     ethr =  4.05E-09,  avg # of iterations =  1.0

     total cpu time spent up to now is      546.9 secs

     End of self-consistent calculation

          k = 0.0000 0.0000 0.0000 (252395 PWs)   bands (ev):

    -9.9943  -9.1334  -9.1101  -9.1099  -9.0238  -9.0236  -8.3841  -7.5175
    -7.4521  -7.4520  -6.7838  -5.8673  -5.8274  -5.8273  -5.6320  -5.6318
    -4.7845  -4.7845  -3.9979  -3.7242  -3.2732  -3.2566  -3.2564  -3.2268
    -3.1265  -3.1149  -3.1147  -3.0739  -3.0736  -2.7019  -2.7019

     the Fermi energy is    -3.0976 ev

!    total energy              =     -77.17587793 Ry
     Harris-Foulkes estimate   =     -77.17587847 Ry
     estimated scf accuracy    <       0.00000070 Ry

     The total energy is the sum of the following terms:

     one-electron contribution =    -269.50034745 Ry
     hartree contribution      =     139.41889515 Ry
     xc contribution           =     -33.47896875 Ry
     ewald contribution        =      86.49817594 Ry
     smearing contrib. (-TS)   =      -0.11363283 Ry

     convergence has been achieved in  10 iterations

     Forces acting on atoms (cartesian axes, Ry/au):

     atom    1 type  1   force =    -0.00192022    0.00110541    0.00000000
     atom    2 type  1   force =     0.00000108    0.00001638    0.00000000
     atom    3 type  1   force =     0.00190800    0.00111334    0.00000000
     atom    4 type  1   force =     0.00610829    0.00391562    0.00000000
     atom    5 type  1   force =    -0.01750501   -0.01011277    0.00000000
     atom    6 type  1   force =    -0.00642791    0.00332947    0.00000000
     atom    7 type  1   force =    -0.00000631    0.00084156    0.00000000
     atom    8 type  1   force =     0.00641987    0.00331286    0.00000000
     atom    9 type  1   force =    -0.00001853   -0.00220518    0.00000000
     atom   10 type  1   force =    -0.00031861   -0.00725852    0.00000000
     atom   11 type  1   force =     0.00074860   -0.00042543    0.00000000
     atom   12 type  1   force =    -0.00000252   -0.00000017    0.00000000
     atom   13 type  1   force =     0.00000281    0.02021104    0.00000000
     atom   14 type  1   force =    -0.00609880    0.00391944    0.00000000
     atom   15 type  1   force =     0.01751262   -0.01011312    0.00000000
     atom   16 type  1   force =    -0.00075036   -0.00041708    0.00000000
     atom   17 type  1   force =     0.00034699   -0.00723284    0.00000000

     Total force =     0.039472     Total SCF correction =     0.000700


     Computing stress (Cartesian axis) and pressure

          total   stress  (Ry/bohr**3)                   (kbar)     P=   -1.29
  -0.00001309  -0.00000000   0.00000000         -1.93     -0.00      0.00
  -0.00000000  -0.00001311   0.00000000         -0.00     -1.93      0.00
   0.00000000   0.00000000  -0.00000001          0.00      0.00     -0.00


     number of scf cycles    =   5
     number of bfgs steps    =   4

     enthalpy old            =     -77.1705970985 Ry
     enthalpy new            =     -77.1758779349 Ry

     CASE: enthalpy_new < enthalpy_old

     new trust radius        =       0.1126101314 bohr
     new conv_thr            =       0.0000010000 Ry

     new unit-cell volume =  20755.14969 a.u.^3 (  3075.59583 Ang^3 )
     density =      0.27519 g/cm^3

CELL_PARAMETERS (alat= 25.26072511)
   0.996866401   0.000000890   0.000000000
  -0.498432429   0.863312834   0.000000000
   0.000000000   0.000000000   1.496177267

ATOMIC_POSITIONS (angstrom)
Al       0.000169146   2.564477985   0.000000000
Al       2.220987443   1.282368045   0.000000000
Al       4.441790493   2.564487390   0.000000000
Al       6.676602761   1.261448697   0.000000000
Al      -2.355168703   6.333791552   0.000000000
Al       0.011271204   5.151445582   0.000000000
Al       2.221009839   6.361471380   0.000000000
Al       4.430669260   5.151473587   0.000000000
Al      -4.441717700  10.258190453   0.000000000
Al      -2.195844291   8.974371666   0.000000000
Al      -0.043099683  10.282989146   0.000000000
Al       2.220952759   8.975854300   0.000000000
Al       8.883700139   2.719526078   0.000000000
Al      11.090769872   1.261482174   0.000000000
Al       6.796993503   6.333834462   0.000000000
Al       4.485040142  10.282965568   0.000000000
Al       6.637722746   8.974292544   0.000000000



     Writing output data file 16al_planar_2x2_vcr.save/
     NEW-OLD atomic charge density approx. for the potential

     negative rho (up, down):  2.104E-06 0.000E+00
     extrapolated charge   50.86905, renormalised to   51.00000

     total cpu time spent up to now is      577.6 secs

     Self-consistent Calculation

     iteration #  1     ecut=    80.00 Ry     beta= 0.40
     Davidson diagonalization with overlap
     ethr =  1.00E-06,  avg # of iterations =  8.0

     negative rho (up, down):  1.140E-06 0.000E+00

     total cpu time spent up to now is      593.5 secs

     total energy              =     -77.18108260 Ry
     Harris-Foulkes estimate   =     -77.81634865 Ry
     estimated scf accuracy    <       0.00316583 Ry

     iteration #  2     ecut=    80.00 Ry     beta= 0.40
     Davidson diagonalization with overlap
     ethr =  6.21E-06,  avg # of iterations =  5.0

     negative rho (up, down):  9.693E-07 0.000E+00

     total cpu time spent up to now is      603.8 secs

     total energy              =     -77.18145075 Ry
     Harris-Foulkes estimate   =     -77.18474582 Ry
     estimated scf accuracy    <       0.01732120 Ry

     iteration #  3     ecut=    80.00 Ry     beta= 0.40
     Davidson diagonalization with overlap
     ethr =  6.21E-06,  avg # of iterations =  3.0

     negative rho (up, down):  7.973E-07 0.000E+00

     total cpu time spent up to now is      613.5 secs

     total energy              =     -77.18278256 Ry
     Harris-Foulkes estimate   =     -77.18297809 Ry
     estimated scf accuracy    <       0.00101757 Ry

     iteration #  4     ecut=    80.00 Ry     beta= 0.40
     Davidson diagonalization with overlap
     ethr =  2.00E-06,  avg # of iterations =  3.0

     negative rho (up, down):  6.161E-07 0.000E+00

     total cpu time spent up to now is      621.9 secs

     total energy              =     -77.18283320 Ry
     Harris-Foulkes estimate   =     -77.18291174 Ry
     estimated scf accuracy    <       0.00046962 Ry

     iteration #  5     ecut=    80.00 Ry     beta= 0.40
     Davidson diagonalization with overlap
     ethr =  9.21E-07,  avg # of iterations =  3.0

     negative rho (up, down):  7.797E-08 0.000E+00

     total cpu time spent up to now is      629.8 secs

     total energy              =     -77.18282055 Ry
     Harris-Foulkes estimate   =     -77.18287319 Ry
     estimated scf accuracy    <       0.00018796 Ry

     iteration #  6     ecut=    80.00 Ry     beta= 0.40
     Davidson diagonalization with overlap
     ethr =  3.69E-07,  avg # of iterations =  4.0

     negative rho (up, down):  4.574E-08 0.000E+00

     total cpu time spent up to now is      639.6 secs

     total energy              =     -77.18285352 Ry
     Harris-Foulkes estimate   =     -77.18288128 Ry
     estimated scf accuracy    <       0.00016997 Ry

     iteration #  7     ecut=    80.00 Ry     beta= 0.40
     Davidson diagonalization with overlap
     ethr =  3.33E-07,  avg # of iterations =  1.0

     negative rho (up, down):  3.921E-08 0.000E+00

     total cpu time spent up to now is      646.3 secs

     total energy              =     -77.18286112 Ry
     Harris-Foulkes estimate   =     -77.18287003 Ry
     estimated scf accuracy    <       0.00004455 Ry

     iteration #  8     ecut=    80.00 Ry     beta= 0.40
     Davidson diagonalization with overlap
     ethr =  8.74E-08,  avg # of iterations =  3.0

     total cpu time spent up to now is      652.9 secs

     total energy              =     -77.18285749 Ry
     Harris-Foulkes estimate   =     -77.18286396 Ry
     estimated scf accuracy    <       0.00001512 Ry

     iteration #  9     ecut=    80.00 Ry     beta= 0.40
     Davidson diagonalization with overlap
     ethr =  2.97E-08,  avg # of iterations =  3.0

     total cpu time spent up to now is      661.9 secs

     total energy              =     -77.18286236 Ry
     Harris-Foulkes estimate   =     -77.18286344 Ry
     estimated scf accuracy    <       0.00000701 Ry

     iteration # 10     ecut=    80.00 Ry     beta= 0.40
     Davidson diagonalization with overlap
     ethr =  1.37E-08,  avg # of iterations =  1.0

     total cpu time spent up to now is      668.3 secs

     total energy              =     -77.18286245 Ry
     Harris-Foulkes estimate   =     -77.18286268 Ry
     estimated scf accuracy    <       0.00000284 Ry

     iteration # 11     ecut=    80.00 Ry     beta= 0.40
     Davidson diagonalization with overlap
     ethr =  5.57E-09,  avg # of iterations =  1.0

     total cpu time spent up to now is      674.7 secs

     total energy              =     -77.18286184 Ry
     Harris-Foulkes estimate   =     -77.18286252 Ry
     estimated scf accuracy    <       0.00000199 Ry

     iteration # 12     ecut=    80.00 Ry     beta= 0.40
     Davidson diagonalization with overlap
     ethr =  3.90E-09,  avg # of iterations =  3.0

     total cpu time spent up to now is      684.1 secs

     total energy              =     -77.18286236 Ry
     Harris-Foulkes estimate   =     -77.18286249 Ry
     estimated scf accuracy    <       0.00000106 Ry

     iteration # 13     ecut=    80.00 Ry     beta= 0.40
     Davidson diagonalization with overlap
     ethr =  2.07E-09,  avg # of iterations =  4.0

     total cpu time spent up to now is      690.6 secs

     End of self-consistent calculation

          k = 0.0000 0.0000 0.0000 (252395 PWs)   bands (ev):

    -9.9938  -9.1209  -9.1167  -9.1166  -9.0060  -9.0059  -8.3836  -7.5059
    -7.4439  -7.4438  -6.8238  -5.8531  -5.8031  -5.8030  -5.6444  -5.6444
    -4.8054  -4.8054  -3.9955  -3.8669  -3.2906  -3.2350  -3.2349  -3.1779
    -3.1162  -3.1162  -3.1130  -3.0595  -3.0595  -2.6763  -2.6761

     the Fermi energy is    -3.0849 ev

!    total energy              =     -77.18286215 Ry
     Harris-Foulkes estimate   =     -77.18286245 Ry
     estimated scf accuracy    <       0.00000034 Ry

     The total energy is the sum of the following terms:

     one-electron contribution =    -269.79131760 Ry
     hartree contribution      =     139.54796010 Ry
     xc contribution           =     -33.45881595 Ry
     ewald contribution        =      86.63022782 Ry
     smearing contrib. (-TS)   =      -0.11091652 Ry

     convergence has been achieved in  13 iterations

     Forces acting on atoms (cartesian axes, Ry/au):

     atom    1 type  1   force =    -0.00319593    0.00183427    0.00000000
     atom    2 type  1   force =    -0.00000090   -0.00001397    0.00000000
     atom    3 type  1   force =     0.00318480    0.00184659    0.00000000
     atom    4 type  1   force =     0.00851663    0.00897931    0.00000000
     atom    5 type  1   force =    -0.01489990   -0.00859732    0.00000000
     atom    6 type  1   force =    -0.01204404    0.00289441    0.00000000
     atom    7 type  1   force =    -0.00001177    0.00598514    0.00000000
     atom    8 type  1   force =     0.01204858    0.00288226    0.00000000
     atom    9 type  1   force =    -0.00003299   -0.00367540    0.00000000
     atom   10 type  1   force =    -0.00352580   -0.01189695    0.00000000
     atom   11 type  1   force =     0.00518384   -0.00297855    0.00000000
     atom   12 type  1   force =     0.00000063   -0.00001431    0.00000000
     atom   13 type  1   force =    -0.00000123    0.01721470    0.00000000
     atom   14 type  1   force =    -0.00850157    0.00896877    0.00000000
     atom   15 type  1   force =     0.01490410   -0.00859874    0.00000000
     atom   16 type  1   force =    -0.00517551   -0.00296441    0.00000000
     atom   17 type  1   force =     0.00355104   -0.01186581    0.00000000

     Total force =     0.044230     Total SCF correction =     0.000511


     Computing stress (Cartesian axis) and pressure

          total   stress  (Ry/bohr**3)                   (kbar)     P=   -1.55
  -0.00001581  -0.00000001   0.00000000         -2.33     -0.00      0.00
  -0.00000001  -0.00001584   0.00000000         -0.00     -2.33      0.00
   0.00000000   0.00000000   0.00000002          0.00      0.00      0.00


     number of scf cycles    =   6
     number of bfgs steps    =   5

     enthalpy old            =     -77.1758779349 Ry
     enthalpy new            =     -77.1828621508 Ry

     CASE: enthalpy_new < enthalpy_old

     new trust radius        =       0.1686986047 bohr
     new conv_thr            =       0.0000010000 Ry

     new unit-cell volume =  20669.92279 a.u.^3 (  3062.96650 Ang^3 )
     density =      0.27632 g/cm^3

CELL_PARAMETERS (alat= 25.26072511)
   0.994817336   0.000001044   0.000000000
  -0.497407764   0.861538632   0.000000000
   0.000000000   0.000000000   1.496177267

ATOMIC_POSITIONS (angstrom)
Al      -0.001494423   2.560185234   0.000000000
Al       2.216456670   1.279768437   0.000000000
Al       4.434376168   2.560198315   0.000000000
Al       6.674575949   1.253261765   0.000000000
Al      -2.427483748   6.276239171   0.000000000
Al       0.010283431   5.153813250   0.000000000
Al       2.216481059   6.325762051   0.000000000
Al       4.422552439   5.153843324   0.000000000
Al      -4.432545027  10.235148438   0.000000000
Al      -2.180605219   8.948629065   0.000000000
Al      -0.062595648  10.273166374   0.000000000
Al       2.216372518   8.957407082   0.000000000
Al       8.865421726   2.802985283   0.000000000
Al      11.056221303   1.253296719   0.000000000
Al       6.860121434   6.276282913   0.000000000
Al       4.495414866  10.273116350   0.000000000
Al       6.613311770   8.948473578   0.000000000



     Writing output data file 16al_planar_2x2_vcr.save/
     NEW-OLD atomic charge density approx. for the potential

     negative rho (up, down):  3.532E-06 0.000E+00
     extrapolated charge   50.78989, renormalised to   51.00000

     total cpu time spent up to now is      723.0 secs

     Self-consistent Calculation

     iteration #  1     ecut=    80.00 Ry     beta= 0.40
     Davidson diagonalization with overlap
     ethr =  1.00E-06,  avg # of iterations =  9.0

     negative rho (up, down):  1.949E-06 0.000E+00

     total cpu time spent up to now is      740.3 secs

     total energy              =     -77.18583990 Ry
     Harris-Foulkes estimate   =     -78.20933319 Ry
     estimated scf accuracy    <       0.00874635 Ry

     iteration #  2     ecut=    80.00 Ry     beta= 0.40
     Davidson diagonalization with overlap
     ethr =  1.71E-05,  avg # of iterations = 11.0

     negative rho (up, down):  1.670E-06 0.000E+00

     total cpu time spent up to now is      751.0 secs

     total energy              =     -77.18635374 Ry
     Harris-Foulkes estimate   =     -77.19660268 Ry
     estimated scf accuracy    <       0.05718668 Ry

     iteration #  3     ecut=    80.00 Ry     beta= 0.40
     Davidson diagonalization with overlap
     ethr =  1.71E-05,  avg # of iterations =  4.0

     negative rho (up, down):  1.346E-06 0.000E+00

     total cpu time spent up to now is      758.6 secs

     total energy              =     -77.19039993 Ry
     Harris-Foulkes estimate   =     -77.19067902 Ry
     estimated scf accuracy    <       0.00237926 Ry

     iteration #  4     ecut=    80.00 Ry     beta= 0.40
     Davidson diagonalization with overlap
     ethr =  4.67E-06,  avg # of iterations =  3.0

     negative rho (up, down):  7.813E-07 0.000E+00

     total cpu time spent up to now is      764.9 secs

     total energy              =     -77.19021446 Ry
     Harris-Foulkes estimate   =     -77.19049609 Ry
     estimated scf accuracy    <       0.00146418 Ry

     iteration #  5     ecut=    80.00 Ry     beta= 0.40
     Davidson diagonalization with overlap
     ethr =  2.87E-06,  avg # of iterations =  1.0

     negative rho (up, down):  7.455E-08 0.000E+00

     total cpu time spent up to now is      771.8 secs

     total energy              =     -77.19007970 Ry
     Harris-Foulkes estimate   =     -77.19038653 Ry
     estimated scf accuracy    <       0.00124907 Ry

     iteration #  6     ecut=    80.00 Ry     beta= 0.40
     Davidson diagonalization with overlap
     ethr =  2.45E-06,  avg # of iterations =  3.0

     negative rho (up, down):  5.624E-08 0.000E+00

     total cpu time spent up to now is      777.9 secs

     total energy              =     -77.19027426 Ry
     Harris-Foulkes estimate   =     -77.19030528 Ry
     estimated scf accuracy    <       0.00016857 Ry

     iteration #  7     ecut=    80.00 Ry     beta= 0.40
     Davidson diagonalization with overlap
     ethr =  3.31E-07,  avg # of iterations =  5.0

     negative rho (up, down):  4.230E-08 0.000E+00

     total cpu time spent up to now is      787.9 secs

     total energy              =     -77.19029474 Ry
     Harris-Foulkes estimate   =     -77.19032702 Ry
     estimated scf accuracy    <       0.00023136 Ry

     iteration #  8     ecut=    80.00 Ry     beta= 0.40
     Davidson diagonalization with overlap
     ethr =  3.31E-07,  avg # of iterations =  1.0

     negative rho (up, down):  2.458E-08 0.000E+00

     total cpu time spent up to now is      794.9 secs

     total energy              =     -77.19028141 Ry
     Harris-Foulkes estimate   =     -77.19030111 Ry
     estimated scf accuracy    <       0.00010214 Ry

     iteration #  9     ecut=    80.00 Ry     beta= 0.40
     Davidson diagonalization with overlap
     ethr =  2.00E-07,  avg # of iterations =  3.0

     total cpu time spent up to now is      802.9 secs

     total energy              =     -77.19027915 Ry
     Harris-Foulkes estimate   =     -77.19028881 Ry
     estimated scf accuracy    <       0.00003185 Ry

     iteration # 10     ecut=    80.00 Ry     beta= 0.40
     Davidson diagonalization with overlap
     ethr =  6.25E-08,  avg # of iterations = 18.0

     negative rho (up, down):  1.056E-08 0.000E+00

     total cpu time spent up to now is      815.5 secs

     total energy              =     -77.19088089 Ry
     Harris-Foulkes estimate   =     -77.19088533 Ry
     estimated scf accuracy    <       0.00039105 Ry

     iteration # 11     ecut=    80.00 Ry     beta= 0.40
     Davidson diagonalization with overlap
     ethr =  6.25E-08,  avg # of iterations =  1.0

     negative rho (up, down):  1.166E-08 0.000E+00

     total cpu time spent up to now is      822.6 secs

     total energy              =     -77.19087832 Ry
     Harris-Foulkes estimate   =     -77.19088116 Ry
     estimated scf accuracy    <       0.00037378 Ry

     iteration # 12     ecut=    80.00 Ry     beta= 0.40
     Davidson diagonalization with overlap
     ethr =  6.25E-08,  avg # of iterations =  1.0

     total cpu time spent up to now is      829.9 secs

     total energy              =     -77.19087917 Ry
     Harris-Foulkes estimate   =     -77.19087887 Ry
     estimated scf accuracy    <       0.00036312 Ry

     iteration # 13     ecut=    80.00 Ry     beta= 0.40
     Davidson diagonalization with overlap
     ethr =  6.25E-08,  avg # of iterations =  1.0

     negative rho (up, down):  2.093E-08 0.000E+00

     total cpu time spent up to now is      836.9 secs

     total energy              =     -77.19087304 Ry
     Harris-Foulkes estimate   =     -77.19087959 Ry
     estimated scf accuracy    <       0.00036187 Ry

     iteration # 14     ecut=    80.00 Ry     beta= 0.40
     Davidson diagonalization with overlap
     ethr =  6.25E-08,  avg # of iterations =  1.0

     negative rho (up, down):  2.009E-08 0.000E+00

     total cpu time spent up to now is      843.9 secs

     total energy              =     -77.19087328 Ry
     Harris-Foulkes estimate   =     -77.19087342 Ry
     estimated scf accuracy    <       0.00033756 Ry

     iteration # 15     ecut=    80.00 Ry     beta= 0.40
     Davidson diagonalization with overlap
     ethr =  6.25E-08,  avg # of iterations =  1.0

     total cpu time spent up to now is      850.9 secs

     total energy              =     -77.19088080 Ry
     Harris-Foulkes estimate   =     -77.19087333 Ry
     estimated scf accuracy    <       0.00033499 Ry

     iteration # 16     ecut=    80.00 Ry     beta= 0.40
     Davidson diagonalization with overlap
     ethr =  6.25E-08,  avg # of iterations =  1.0

     total cpu time spent up to now is      857.8 secs

     total energy              =     -77.19088973 Ry
     Harris-Foulkes estimate   =     -77.19088113 Ry
     estimated scf accuracy    <       0.00037006 Ry

     iteration # 17     ecut=    80.00 Ry     beta= 0.40
     Davidson diagonalization with overlap
     ethr =  6.25E-08,  avg # of iterations =  1.0

     negative rho (up, down):  2.295E-08 0.000E+00

     total cpu time spent up to now is      864.9 secs

     total energy              =     -77.19084340 Ry
     Harris-Foulkes estimate   =     -77.19089005 Ry
     estimated scf accuracy    <       0.00040759 Ry

     iteration # 18     ecut=    80.00 Ry     beta= 0.40
     Davidson diagonalization with overlap
     ethr =  6.25E-08,  avg # of iterations =  3.0

     negative rho (up, down):  6.314E-08 0.000E+00

     total cpu time spent up to now is      872.7 secs

     total energy              =     -77.19076239 Ry
     Harris-Foulkes estimate   =     -77.19085014 Ry
     estimated scf accuracy    <       0.00025078 Ry

     iteration # 19     ecut=    80.00 Ry     beta= 0.40
     Davidson diagonalization with overlap
     ethr =  6.25E-08,  avg # of iterations =  6.0

     negative rho (up, down):  2.186E-08 0.000E+00

     total cpu time spent up to now is      883.7 secs

     total energy              =     -77.19079500 Ry
     Harris-Foulkes estimate   =     -77.19081853 Ry
     estimated scf accuracy    <       0.00010603 Ry

     iteration # 20     ecut=    80.00 Ry     beta= 0.40
     Davidson diagonalization with overlap
     ethr =  6.25E-08,  avg # of iterations =  4.0

     negative rho (up, down):  1.452E-08 0.000E+00

     total cpu time spent up to now is      891.5 secs

     total energy              =     -77.19080367 Ry
     Harris-Foulkes estimate   =     -77.19080668 Ry
     estimated scf accuracy    <       0.00001002 Ry

     iteration # 21     ecut=    80.00 Ry     beta= 0.40
     Davidson diagonalization with overlap
     ethr =  1.96E-08,  avg # of iterations =  4.0

     negative rho (up, down):  1.215E-08 0.000E+00

     total cpu time spent up to now is      900.3 secs

     total energy              =     -77.19080420 Ry
     Harris-Foulkes estimate   =     -77.19080726 Ry
     estimated scf accuracy    <       0.00001653 Ry

     iteration # 22     ecut=    80.00 Ry     beta= 0.40
     Davidson diagonalization with overlap
     ethr =  1.96E-08,  avg # of iterations =  2.0

     total cpu time spent up to now is      906.5 secs

     total energy              =     -77.19080567 Ry
     Harris-Foulkes estimate   =     -77.19080601 Ry
     estimated scf accuracy    <       0.00000163 Ry

     iteration # 23     ecut=    80.00 Ry     beta= 0.40
     Davidson diagonalization with overlap
     ethr =  3.20E-09,  avg # of iterations =  4.0

     total cpu time spent up to now is      915.1 secs

     End of self-consistent calculation

          k = 0.0000 0.0000 0.0000 (252395 PWs)   bands (ev):

    -9.9939  -9.1254  -9.1250  -9.1013  -8.9845  -8.9841  -8.4028  -7.4895
    -7.4327  -7.4326  -6.8937  -5.8298  -5.7776  -5.7774  -5.6603  -5.6602
    -4.8357  -4.8356  -4.1077  -3.9930  -3.3112  -3.2020  -3.2019  -3.1160
    -3.1158  -3.1040  -3.0913  -3.0423  -3.0420  -2.6451  -2.6451

     the Fermi energy is    -3.0628 ev

!    total energy              =     -77.19080539 Ry
     Harris-Foulkes estimate   =     -77.19080612 Ry
     estimated scf accuracy    <       0.00000093 Ry

     The total energy is the sum of the following terms:

     one-electron contribution =    -270.30535213 Ry
     hartree contribution      =     139.77534003 Ry
     xc contribution           =     -33.43110095 Ry
     ewald contribution        =      86.88140611 Ry
     smearing contrib. (-TS)   =      -0.11109844 Ry

     convergence has been achieved in  23 iterations

     Forces acting on atoms (cartesian axes, Ry/au):

     atom    1 type  1   force =    -0.00482906    0.00277176    0.00000000
     atom    2 type  1   force =     0.00002328   -0.00001899    0.00000000
     atom    3 type  1   force =     0.00480493    0.00282383    0.00000000
     atom    4 type  1   force =     0.01104587    0.01649256    0.00000000
     atom    5 type  1   force =    -0.00912941   -0.00527205    0.00000000
     atom    6 type  1   force =    -0.01981831    0.00133260    0.00000000
     atom    7 type  1   force =     0.00000172    0.01295781    0.00000000
     atom    8 type  1   force =     0.01985568    0.00129742    0.00000000
     atom    9 type  1   force =    -0.00007769   -0.00554924    0.00000000
     atom   10 type  1   force =    -0.00875810   -0.01785767    0.00000000
     atom   11 type  1   force =     0.01122863   -0.00643434    0.00000000
     atom   12 type  1   force =     0.00000308   -0.00002505    0.00000000
     atom   13 type  1   force =    -0.00001144    0.01055484    0.00000000
     atom   14 type  1   force =    -0.01103686    0.01647700    0.00000000
     atom   15 type  1   force =     0.00910160   -0.00526364    0.00000000
     atom   16 type  1   force =    -0.01122812   -0.00643827    0.00000000
     atom   17 type  1   force =     0.00882422   -0.01784856    0.00000000

     Total force =     0.057434     Total SCF correction =     0.000720


     Computing stress (Cartesian axis) and pressure

          total   stress  (Ry/bohr**3)                   (kbar)     P=   -1.91
  -0.00001950  -0.00000001   0.00000000         -2.87     -0.00      0.00
  -0.00000001  -0.00001953   0.00000000         -0.00     -2.87      0.00
   0.00000000   0.00000000  -0.00000000          0.00      0.00     -0.00


     number of scf cycles    =   7
     number of bfgs steps    =   6

     enthalpy old            =     -77.1828621508 Ry
     enthalpy new            =     -77.1908053880 Ry

     CASE: enthalpy_new < enthalpy_old

     new trust radius        =       0.2525278305 bohr
     new conv_thr            =       0.0000010000 Ry

     new unit-cell volume =  20527.89252 a.u.^3 (  3041.91979 Ang^3 )
     density =      0.27823 g/cm^3

CELL_PARAMETERS (alat= 25.26072511)
   0.991393037   0.000001332   0.000000000
  -0.495695365   0.858573883   0.000000000
   0.000000000   0.000000000   1.496177267

ATOMIC_POSITIONS (angstrom)
Al      -0.005637485   2.553792858   0.000000000
Al       2.208916008   1.275411055   0.000000000
Al       4.423334691   2.553854186   0.000000000
Al       6.672175573   1.247598904   0.000000000
Al      -2.534463188   6.188067014   0.000000000
Al       0.001183051   5.154626680   0.000000000
Al       2.208933971   6.274723867   0.000000000
Al       4.416476821   5.154635707   0.000000000
Al      -4.417262467  10.195078689   0.000000000
Al      -2.161585260   8.900732281   0.000000000
Al      -0.087693301  10.252474546   0.000000000
Al       2.208722622   8.926571170   0.000000000
Al       8.834860506   2.926449310   0.000000000
Al      10.997486112   1.247627521   0.000000000
Al       6.951708459   6.188122896   0.000000000
Al       4.505265165  10.252354676   0.000000000
Al       6.579003439   8.900418236   0.000000000



     Writing output data file 16al_planar_2x2_vcr.save/
     NEW-OLD atomic charge density approx. for the potential

     negative rho (up, down):  7.404E-06 0.000E+00
     extrapolated charge   50.64742, renormalised to   51.00000

     total cpu time spent up to now is      947.0 secs

     Self-consistent Calculation

     iteration #  1     ecut=    80.00 Ry     beta= 0.40
     Davidson diagonalization with overlap
     ethr =  1.00E-06,  avg # of iterations = 10.0

     negative rho (up, down):  4.203E-06 0.000E+00

     total cpu time spent up to now is      965.7 secs

     total energy              =     -77.18629828 Ry
     Harris-Foulkes estimate   =     -78.91307944 Ry
     estimated scf accuracy    <       0.01964618 Ry

     iteration #  2     ecut=    80.00 Ry     beta= 0.40
     Davidson diagonalization with overlap
     ethr =  3.85E-05,  avg # of iterations =  8.0

     negative rho (up, down):  3.626E-06 0.000E+00

     total cpu time spent up to now is      976.0 secs

     total energy              =     -77.18833473 Ry
     Harris-Foulkes estimate   =     -77.21655615 Ry
     estimated scf accuracy    <       0.17329426 Ry

     iteration #  3     ecut=    80.00 Ry     beta= 0.40
     Davidson diagonalization with overlap
     ethr =  3.85E-05,  avg # of iterations =  4.0

     negative rho (up, down):  2.997E-06 0.000E+00

     total cpu time spent up to now is      984.0 secs

     total energy              =     -77.19954683 Ry
     Harris-Foulkes estimate   =     -77.20018289 Ry
     estimated scf accuracy    <       0.00683571 Ry

     iteration #  4     ecut=    80.00 Ry     beta= 0.40
     Davidson diagonalization with overlap
     ethr =  1.34E-05,  avg # of iterations =  3.0

     negative rho (up, down):  1.999E-06 0.000E+00

     total cpu time spent up to now is      991.4 secs

     total energy              =     -77.19909684 Ry
     Harris-Foulkes estimate   =     -77.19975955 Ry
     estimated scf accuracy    <       0.00456749 Ry

     iteration #  5     ecut=    80.00 Ry     beta= 0.40
     Davidson diagonalization with overlap
     ethr =  8.96E-06,  avg # of iterations =  1.0

     negative rho (up, down):  2.141E-07 0.000E+00

     total cpu time spent up to now is      998.6 secs

     total energy              =     -77.19848047 Ry
     Harris-Foulkes estimate   =     -77.19940517 Ry
     estimated scf accuracy    <       0.00335825 Ry

     iteration #  6     ecut=    80.00 Ry     beta= 0.40
     Davidson diagonalization with overlap
     ethr =  6.58E-06,  avg # of iterations =  4.0

     negative rho (up, down):  1.541E-07 0.000E+00

     total cpu time spent up to now is     1006.5 secs

     total energy              =     -77.19904584 Ry
     Harris-Foulkes estimate   =     -77.19910490 Ry
     estimated scf accuracy    <       0.00032506 Ry

     iteration #  7     ecut=    80.00 Ry     beta= 0.40
     Davidson diagonalization with overlap
     ethr =  6.37E-07,  avg # of iterations =  4.0

     negative rho (up, down):  1.210E-07 0.000E+00

     total cpu time spent up to now is     1015.6 secs

     total energy              =     -77.19909875 Ry
     Harris-Foulkes estimate   =     -77.19916339 Ry
     estimated scf accuracy    <       0.00050203 Ry

     iteration #  8     ecut=    80.00 Ry     beta= 0.40
     Davidson diagonalization with overlap
     ethr =  6.37E-07,  avg # of iterations =  1.0

     negative rho (up, down):  6.946E-08 0.000E+00

     total cpu time spent up to now is     1021.8 secs

     total energy              =     -77.19906610 Ry
     Harris-Foulkes estimate   =     -77.19911232 Ry
     estimated scf accuracy    <       0.00023216 Ry

     iteration #  9     ecut=    80.00 Ry     beta= 0.40
     Davidson diagonalization with overlap
     ethr =  4.55E-07,  avg # of iterations =  2.0

     negative rho (up, down):  3.976E-08 0.000E+00

     total cpu time spent up to now is     1028.2 secs

     total energy              =     -77.19907324 Ry
     Harris-Foulkes estimate   =     -77.19908373 Ry
     estimated scf accuracy    <       0.00004900 Ry

     iteration # 10     ecut=    80.00 Ry     beta= 0.40
     Davidson diagonalization with overlap
     ethr =  9.61E-08,  avg # of iterations =  5.0

     negative rho (up, down):  4.202E-08 0.000E+00

     total cpu time spent up to now is     1036.7 secs

     total energy              =     -77.19908450 Ry
     Harris-Foulkes estimate   =     -77.19908656 Ry
     estimated scf accuracy    <       0.00001303 Ry

     iteration # 11     ecut=    80.00 Ry     beta= 0.40
     Davidson diagonalization with overlap
     ethr =  2.55E-08,  avg # of iterations =  2.0

     total cpu time spent up to now is     1043.3 secs

     total energy              =     -77.19908397 Ry
     Harris-Foulkes estimate   =     -77.19908560 Ry
     estimated scf accuracy    <       0.00000844 Ry

     iteration # 12     ecut=    80.00 Ry     beta= 0.40
     Davidson diagonalization with overlap
     ethr =  1.66E-08,  avg # of iterations =  3.0

     total cpu time spent up to now is     1051.6 secs

     End of self-consistent calculation

          k = 0.0000 0.0000 0.0000 (252395 PWs)   bands (ev):

   -10.0306  -9.1748  -9.1703  -9.1065  -8.9873  -8.9856  -8.4881  -7.5045
    -7.4380  -7.4351  -7.0307  -5.8331  -5.8016  -5.8008  -5.6935  -5.6875
    -4.9028  -4.9011  -4.4669  -4.0159  -3.3582  -3.1874  -3.1850  -3.1423
    -3.1396  -3.0843  -3.0375  -3.0369  -3.0232  -2.6941  -2.6408

     the Fermi energy is    -3.0593 ev

!    total energy              =     -77.19908450 Ry
     Harris-Foulkes estimate   =     -77.19908509 Ry
     estimated scf accuracy    <       0.00000079 Ry

     The total energy is the sum of the following terms:

     one-electron contribution =    -271.24166376 Ry
     hartree contribution      =     140.13883602 Ry
     xc contribution           =     -33.38042755 Ry
     ewald contribution        =      87.39914677 Ry
     smearing contrib. (-TS)   =      -0.11497598 Ry

     convergence has been achieved in  12 iterations

     Forces acting on atoms (cartesian axes, Ry/au):

     atom    1 type  1   force =    -0.00527797    0.00437243    0.00000000
     atom    2 type  1   force =    -0.00131622   -0.00154591    0.00000000
     atom    3 type  1   force =     0.00668738    0.00434996    0.00000000
     atom    4 type  1   force =     0.01445534    0.02516499    0.00000000
     atom    5 type  1   force =    -0.00341795   -0.00180992    0.00000000
     atom    6 type  1   force =    -0.02946769   -0.00110591    0.00000000
     atom    7 type  1   force =     0.00017574    0.02128321    0.00000000
     atom    8 type  1   force =     0.02924218   -0.00068881    0.00000000
     atom    9 type  1   force =     0.00069558   -0.00609093    0.00000000
     atom   10 type  1   force =    -0.01535651   -0.02514916    0.00000000
     atom   11 type  1   force =     0.01798212   -0.00995362    0.00000000
     atom   12 type  1   force =    -0.00059108   -0.00075403    0.00000000
     atom   13 type  1   force =     0.00028027    0.00346511    0.00000000
     atom   14 type  1   force =    -0.01497672    0.02469748    0.00000000
     atom   15 type  1   force =     0.00332999   -0.00143925    0.00000000
     atom   16 type  1   force =    -0.01670123   -0.00941868    0.00000000
     atom   17 type  1   force =     0.01425678   -0.02537697    0.00000000

     Total force =     0.080955     Total SCF correction =     0.000673


     Computing stress (Cartesian axis) and pressure

          total   stress  (Ry/bohr**3)                   (kbar)     P=   -2.52
  -0.00002656  -0.00000073   0.00000000         -3.91     -0.11      0.00
  -0.00000073  -0.00002490   0.00000000         -0.11     -3.66      0.00
   0.00000000   0.00000000  -0.00000003          0.00      0.00     -0.01


     number of scf cycles    =   8
     number of bfgs steps    =   7

     enthalpy old            =     -77.1908053880 Ry
     enthalpy new            =     -77.1990845002 Ry

     CASE: enthalpy_new < enthalpy_old

     new trust radius        =       0.3774880907 bohr
     new conv_thr            =       0.0000010000 Ry

     new unit-cell volume =  20291.65070 a.u.^3 (  3006.91236 Ang^3 )
     density =      0.28147 g/cm^3

CELL_PARAMETERS (alat= 25.26072511)
   0.985627448  -0.000035267   0.000000000
  -0.492844265   0.853675996   0.000000000
   0.000000000   0.000000000   1.496177267

ATOMIC_POSITIONS (angstrom)
Al      -0.012677105   2.544678654   0.000000000
Al       2.194737521   1.266447632   0.000000000
Al       4.406153828   2.544579071   0.000000000
Al       6.668735275   1.248287742   0.000000000
Al      -2.692027125   6.053581789   0.000000000
Al      -0.024114411   5.150700713   0.000000000
Al       2.196188874   6.202012419   0.000000000
Al       4.415558942   5.150991224   0.000000000
Al      -4.391086004  10.128681974   0.000000000
Al      -2.139405903   8.815195867   0.000000000
Al      -0.119781708  10.212867259   0.000000000
Al       2.194872224   8.874569317   0.000000000
Al       8.783595311   3.107433286   0.000000000
Al      10.897320612   1.247655316   0.000000000
Al       7.082827982   6.053681915   0.000000000
Al       4.512293068  10.213026164   0.000000000
[...]
     Davidson diagonalization with overlap
     ethr =  1.65E-10,  avg # of iterations =  3.0

     total cpu time spent up to now is    23437.7 secs

     End of self-consistent calculation

          k = 0.0000 0.0000 0.0000 (252395 PWs)   bands (ev):

   -11.2072  -9.9747  -9.9326  -9.8261  -9.7395  -8.5717  -8.5419  -8.5032
    -8.3702  -6.2255  -6.1817  -6.0106  -5.8830  -5.2045  -5.0575  -4.9612
    -4.8408  -4.7430  -4.6261  -4.3620  -4.1934  -4.1545  -3.4194  -3.4116
    -3.3406  -3.2479  -2.1193  -2.1016  -2.0942  -1.9541  -1.2654

     the Fermi energy is    -2.9709 ev

!    total energy              =     -78.05943791 Ry
     Harris-Foulkes estimate   =     -78.05943791 Ry
     estimated scf accuracy    <          8.7E-09 Ry

     The total energy is the sum of the following terms:

     one-electron contribution =    -366.23196417 Ry
     hartree contribution      =     188.17151004 Ry
     xc contribution           =     -34.77971726 Ry
     ewald contribution        =     134.76253753 Ry
     smearing contrib. (-TS)   =       0.01819596 Ry

     convergence has been achieved in   3 iterations

     Forces acting on atoms (cartesian axes, Ry/au):

     atom    1 type  1   force =     0.00000057    0.00000111    0.00000000
     atom    2 type  1   force =    -0.00000250    0.00000050    0.00000000
     atom    3 type  1   force =     0.00000009   -0.00000274    0.00000000
     atom    4 type  1   force =    -0.00000053    0.00000196    0.00000000
     atom    5 type  1   force =    -0.00000141   -0.00000247    0.00000000
     atom    6 type  1   force =     0.00000083   -0.00000407    0.00000000
     atom    7 type  1   force =    -0.00000060   -0.00000033    0.00000000
     atom    8 type  1   force =     0.00000126   -0.00000236    0.00000000
     atom    9 type  1   force =     0.00000280   -0.00000060    0.00000000
     atom   10 type  1   force =     0.00000021    0.00000267    0.00000000
     atom   11 type  1   force =    -0.00000083    0.00000253    0.00000000
     atom   12 type  1   force =    -0.00000027   -0.00000141    0.00000000
     atom   13 type  1   force =     0.00000106   -0.00000023    0.00000000
     atom   14 type  1   force =     0.00000080    0.00000210    0.00000000
     atom   15 type  1   force =    -0.00000313    0.00000118    0.00000000
     atom   16 type  1   force =     0.00000099    0.00000435    0.00000000
     atom   17 type  1   force =     0.00000065   -0.00000219    0.00000000

     Total force =     0.000011     Total SCF correction =     0.000096
     SCF correction compared to forces is large: reduce conv_thr to get better values


     Computing stress (Cartesian axis) and pressure

          total   stress  (Ry/bohr**3)                   (kbar)     P=   -0.00
  -0.00000000  -0.00000000   0.00000000         -0.00     -0.00      0.00
  -0.00000000   0.00000000   0.00000000         -0.00      0.00      0.00
   0.00000000   0.00000000  -0.00000001          0.00      0.00     -0.00


     bfgs converged in 236 scf cycles and 230 bfgs steps
     (criteria: energy <  1.0E-05 Ry, force <  1.0E-04Ry/Bohr, cell <  5.0E-05kbar)

     End of BFGS Geometry Optimization

     Final enthalpy =     -78.0594379059 Ry
Begin final coordinates
     new unit-cell volume =  15095.18669 a.u.^3 (  2236.87586 Ang^3 )
     density =      0.37837 g/cm^3

CELL_PARAMETERS (alat= 25.26072511)
   0.766452832  -0.193456106   0.000000000
  -0.564951135   0.959239785   0.000000000
   0.000000000   0.000000000   1.496177267

ATOMIC_POSITIONS (angstrom)
Al      -0.528661721   2.557021396   0.000000000
Al       1.897655452   1.465199368   0.000000000
Al       4.390511866   2.167538302   0.000000000
Al       4.800159867  -0.212677040   0.000000000
Al      -3.750420500   6.164483417   0.000000000
Al      -1.154050199   5.309741164   0.000000000
Al       0.720012970   7.720234201   0.000000000
Al       1.328119337   4.677276299   0.000000000
Al      -5.091863996  11.488335718   0.000000000
Al      -4.446989898   8.818814213   0.000000000
Al      -2.342396360  10.229639250   0.000000000
Al      -1.813381682   7.826832843   0.000000000
Al       7.140041580   0.909080160   0.000000000
Al       7.702349332  -1.890271160   0.000000000
Al       3.861497185   4.570381834   0.000000000
Al       2.576786633   9.840387619   0.000000000
Al       3.202177198   7.087594622   0.000000000
End final coordinates



     Writing output data file 16al_planar_2x2_vcr.save/

     A final scf calculation at the relaxed structure.
     The G-vectors are recalculated for the final unit cell
     Results may differ from those at the preceding step.
 
     Parallelization info
     --------------------
     sticks:   dense  smooth     PW     G-vecs:    dense   smooth      PW
     Min        1269    1269    318               182381   182381   22802
     Max        1270    1270    319               182386   182386   22805
     Sum       10153   10153   2545              1459059  1459059  182431
 


     bravais-lattice index     =            4
     lattice parameter (alat)  =      25.2607  a.u.
     unit-cell volume          =   15095.1867 (a.u.)^3
     number of atoms/cell      =           17
     number of atomic types    =            1
     number of electrons       =        51.00
     number of Kohn-Sham states=           31
     kinetic-energy cutoff     =      80.0000  Ry
     charge density cutoff     =     320.0000  Ry
     convergence threshold     =      1.0E-08
     mixing beta               =       0.4000
     number of iterations used =            8  plain     mixing
     Exchange-correlation      = PBE ( 1  4  3  4 0 0)

     celldm(1)=  25.260725  celldm(2)=   0.000000  celldm(3)=   1.496177
     celldm(4)=   0.000000  celldm(5)=   0.000000  celldm(6)=   0.000000

     crystal axes: (cart. coord. in units of alat)
               a(1) = (   0.766453  -0.193456   0.000000 )  
               a(2) = (  -0.564951   0.959240   0.000000 )  
               a(3) = (   0.000000   0.000000   1.496177 )  

     reciprocal axes: (cart. coord. in units 2 pi/alat)
               b(1) = (  1.532531  0.902595  0.000000 )  
               b(2) = (  0.309075  1.224524  0.000000 )  
               b(3) = (  0.000000  0.000000  0.668370 )  


     PseudoPot. # 1 for Al read from file:
     ./Al.upf
     MD5 check sum: 4974d48a734c9d7d1eb6780a1419d19d
     Pseudo is Norm-conserving + core correction, Zval =  3.0
     Generated using ONCVPSP code by D. R. Hamann
     Using radial grid of 1876 points,  6 beta functions with: 
                l(1) =   0
                l(2) =   0
                l(3) =   1
                l(4) =   1
                l(5) =   2
                l(6) =   2

     atomic species   valence    mass     pseudopotential
        Al             3.00    29.98200     Al( 1.00)

      2 Sym. Ops. (no inversion) found



   Cartesian axes

     site n.     atom                  positions (alat units)
         1           Al  tau(   1) = (  -0.0395486   0.1912879   0.0000000  )
         2           Al  tau(   2) = (   0.1419614   0.1096099   0.0000000  )
         3           Al  tau(   3) = (   0.3284492   0.1621511   0.0000000  )
         4           Al  tau(   4) = (   0.3590945  -0.0159101   0.0000000  )
         5           Al  tau(   5) = (  -0.2805647   0.4611580   0.0000000  )
         6           Al  tau(   6) = (  -0.0863332   0.3972157   0.0000000  )
         7           Al  tau(   7) = (   0.0538634   0.5775419   0.0000000  )
         8           Al  tau(   8) = (   0.0993551   0.3499017   0.0000000  )
         9           Al  tau(   9) = (  -0.3809166   0.8594293   0.0000000  )
        10           Al  tau(  10) = (  -0.3326743   0.6597255   0.0000000  )
        11           Al  tau(  11) = (  -0.1752320   0.7652677   0.0000000  )
        12           Al  tau(  12) = (  -0.1356570   0.5855165   0.0000000  )
        13           Al  tau(  13) = (   0.5341384   0.0680073   0.0000000  )
        14           Al  tau(  14) = (   0.5762040  -0.1414090   0.0000000  )
        15           Al  tau(  15) = (   0.2888742   0.3419051   0.0000000  )
        16           Al  tau(  16) = (   0.1927665   0.7361482   0.0000000  )
        17           Al  tau(  17) = (   0.2395512   0.5302149   0.0000000  )

     number of k points=     1  Methfessel-Paxton smearing, width (Ry)=  0.0500
                       cart. coord. in units 2pi/alat
        k(    1) = (   0.0000000   0.0000000   0.0000000), wk =   2.0000000

     Dense  grid:  1459059 G-vectors     FFT dimensions: ( 120, 162, 216)

     Estimated max dynamical RAM per process >     329.69 MB

     Estimated total dynamical RAM >       2.58 GB

     Initial potential from superposition of free atoms

     starting charge   50.95840, renormalised to   51.00000

     negative rho (up, down):  4.033E-05 0.000E+00
     Starting wfcs are   68 randomized atomic wfcs

     total cpu time spent up to now is    23469.2 secs

     Self-consistent Calculation

     iteration #  1     ecut=    80.00 Ry     beta= 0.40
     Davidson diagonalization with overlap
     c_bands:  1 eigenvalues not converged
     ethr =  1.00E-06,  avg # of iterations = 20.0

     negative rho (up, down):  6.197E-06 0.000E+00

     total cpu time spent up to now is    23487.6 secs

     total energy              =     -78.01863436 Ry
     Harris-Foulkes estimate   =     -78.23867584 Ry
     estimated scf accuracy    <       0.55618068 Ry

     iteration #  2     ecut=    80.00 Ry     beta= 0.40
     Davidson diagonalization with overlap
     ethr =  1.09E-03,  avg # of iterations =  2.0

     negative rho (up, down):  4.155E-06 0.000E+00

     total cpu time spent up to now is    23494.6 secs

     total energy              =     -77.97239529 Ry
     Harris-Foulkes estimate   =     -78.15264671 Ry
     estimated scf accuracy    <       0.59721561 Ry

     iteration #  3     ecut=    80.00 Ry     beta= 0.40
     Davidson diagonalization with overlap
     ethr =  1.09E-03,  avg # of iterations =  3.0

     negative rho (up, down):  8.715E-07 0.000E+00

     total cpu time spent up to now is    23501.4 secs

     total energy              =     -78.04311884 Ry
     Harris-Foulkes estimate   =     -78.08792726 Ry
     estimated scf accuracy    <       0.15685043 Ry

     iteration #  4     ecut=    80.00 Ry     beta= 0.40
     Davidson diagonalization with overlap
     ethr =  3.08E-04,  avg # of iterations =  2.0

     negative rho (up, down):  3.427E-07 0.000E+00

     total cpu time spent up to now is    23508.2 secs

     total energy              =     -78.05421487 Ry
     Harris-Foulkes estimate   =     -78.05733461 Ry
     estimated scf accuracy    <       0.01272487 Ry

     iteration #  5     ecut=    80.00 Ry     beta= 0.40
     Davidson diagonalization with overlap
     ethr =  2.50E-05,  avg # of iterations =  4.0

     negative rho (up, down):  2.193E-07 0.000E+00

     total cpu time spent up to now is    23516.7 secs

     total energy              =     -78.05904162 Ry
     Harris-Foulkes estimate   =     -78.06008507 Ry
     estimated scf accuracy    <       0.00588128 Ry

     iteration #  6     ecut=    80.00 Ry     beta= 0.40
     Davidson diagonalization with overlap
     ethr =  1.15E-05,  avg # of iterations =  1.0

     negative rho (up, down):  9.526E-08 0.000E+00

     total cpu time spent up to now is    23523.3 secs

     total energy              =     -78.05885353 Ry
     Harris-Foulkes estimate   =     -78.05957994 Ry
     estimated scf accuracy    <       0.00201414 Ry

     iteration #  7     ecut=    80.00 Ry     beta= 0.40
     Davidson diagonalization with overlap
     ethr =  3.95E-06,  avg # of iterations =  5.0

     negative rho (up, down):  1.214E-08 0.000E+00

     total cpu time spent up to now is    23533.9 secs

     total energy              =     -78.05930210 Ry
     Harris-Foulkes estimate   =     -78.05938313 Ry
     estimated scf accuracy    <       0.00058822 Ry

     iteration #  8     ecut=    80.00 Ry     beta= 0.40
     Davidson diagonalization with overlap
     ethr =  1.15E-06,  avg # of iterations =  1.0

     total cpu time spent up to now is    23542.8 secs

     total energy              =     -78.05928756 Ry
     Harris-Foulkes estimate   =     -78.05933475 Ry
     estimated scf accuracy    <       0.00021261 Ry

     iteration #  9     ecut=    80.00 Ry     beta= 0.40
     Davidson diagonalization with overlap
     ethr =  4.17E-07,  avg # of iterations =  3.0

     total cpu time spent up to now is    23551.9 secs

     total energy              =     -78.05931153 Ry
     Harris-Foulkes estimate   =     -78.05931294 Ry
     estimated scf accuracy    <       0.00000558 Ry

     iteration # 10     ecut=    80.00 Ry     beta= 0.40
     Davidson diagonalization with overlap
     ethr =  1.09E-08,  avg # of iterations =  4.0

     total cpu time spent up to now is    23562.8 secs

     total energy              =     -78.05931613 Ry
     Harris-Foulkes estimate   =     -78.05931644 Ry
     estimated scf accuracy    <       0.00000194 Ry

     iteration # 11     ecut=    80.00 Ry     beta= 0.40
     Davidson diagonalization with overlap
     ethr =  3.81E-09,  avg # of iterations =  2.0

     total cpu time spent up to now is    23569.3 secs

     total energy              =     -78.05931610 Ry
     Harris-Foulkes estimate   =     -78.05931622 Ry
     estimated scf accuracy    <       0.00000079 Ry

     iteration # 12     ecut=    80.00 Ry     beta= 0.40
     Davidson diagonalization with overlap
     ethr =  1.54E-09,  avg # of iterations =  2.0

     total cpu time spent up to now is    23576.9 secs

     total energy              =     -78.05931604 Ry
     Harris-Foulkes estimate   =     -78.05931618 Ry
     estimated scf accuracy    <       0.00000061 Ry

     iteration # 13     ecut=    80.00 Ry     beta= 0.40
     Davidson diagonalization with overlap
     ethr =  1.19E-09,  avg # of iterations =  2.0

     total cpu time spent up to now is    23583.5 secs

     total energy              =     -78.05931607 Ry
     Harris-Foulkes estimate   =     -78.05931609 Ry
     estimated scf accuracy    <       0.00000006 Ry

     iteration # 14     ecut=    80.00 Ry     beta= 0.40
     Davidson diagonalization with overlap
     ethr =  1.24E-10,  avg # of iterations =  4.0

     total cpu time spent up to now is    23591.7 secs

     total energy              =     -78.05931607 Ry
     Harris-Foulkes estimate   =     -78.05931608 Ry
     estimated scf accuracy    <       0.00000001 Ry

     iteration # 15     ecut=    80.00 Ry     beta= 0.40
     Davidson diagonalization with overlap
     ethr =  2.67E-11,  avg # of iterations =  2.0

     total cpu time spent up to now is    23597.8 secs

     End of self-consistent calculation

          k = 0.0000 0.0000 0.0000 (182431 PWs)   bands (ev):

   -11.2072  -9.9747  -9.9326  -9.8261  -9.7395  -8.5717  -8.5418  -8.5032
    -8.3702  -6.2254  -6.1817  -6.0106  -5.8830  -5.2044  -5.0575  -4.9611
    -4.8408  -4.7430  -4.6261  -4.3620  -4.1934  -4.1545  -3.4194  -3.4117
    -3.3406  -3.2479  -2.1193  -2.1016  -2.0942  -1.9541  -1.2649

     the Fermi energy is    -2.9709 ev

!    total energy              =     -78.05931607 Ry
     Harris-Foulkes estimate   =     -78.05931607 Ry
     estimated scf accuracy    <          2.2E-09 Ry

     The total energy is the sum of the following terms:

     one-electron contribution =    -366.23175521 Ry
     hartree contribution      =     188.17145870 Ry
     xc contribution           =     -34.77975229 Ry
     ewald contribution        =     134.76253753 Ry
     smearing contrib. (-TS)   =       0.01819520 Ry

     convergence has been achieved in  15 iterations

     Forces acting on atoms (cartesian axes, Ry/au):

     atom    1 type  1   force =    -0.00000007   -0.00000122    0.00000000
     atom    2 type  1   force =    -0.00000614   -0.00000233    0.00000000
     atom    3 type  1   force =     0.00000093   -0.00000595    0.00000000
     atom    4 type  1   force =    -0.00000266    0.00000162    0.00000000
     atom    5 type  1   force =    -0.00000326    0.00000061    0.00000000
     atom    6 type  1   force =    -0.00000054    0.00000430    0.00000000
     atom    7 type  1   force =     0.00000187    0.00000030    0.00000000
     atom    8 type  1   force =     0.00000123   -0.00000091    0.00000000
     atom    9 type  1   force =    -0.00000243   -0.00000216    0.00000000
     atom   10 type  1   force =    -0.00000085    0.00000218    0.00000000
     atom   11 type  1   force =     0.00000149    0.00000246    0.00000000
     atom   12 type  1   force =     0.00000050    0.00000188    0.00000000
     atom   13 type  1   force =     0.00000542   -0.00000001    0.00000000
     atom   14 type  1   force =     0.00000216    0.00000020    0.00000000
     atom   15 type  1   force =    -0.00000350    0.00000188    0.00000000
     atom   16 type  1   force =     0.00000275    0.00000291    0.00000000
     atom   17 type  1   force =     0.00000312   -0.00000577    0.00000000

     Total force =     0.000016     Total SCF correction =     0.000040
     SCF correction compared to forces is large: reduce conv_thr to get better values


     Computing stress (Cartesian axis) and pressure

          total   stress  (Ry/bohr**3)                   (kbar)     P=    0.00
   0.00000003  -0.00000000   0.00000000          0.00     -0.00      0.00
  -0.00000000   0.00000003   0.00000000         -0.00      0.00      0.00
   0.00000000   0.00000000  -0.00000001          0.00      0.00     -0.00


     Writing output data file 16al_planar_2x2_vcr.save/
 
     init_run     :     18.08s CPU     19.90s WALL (       2 calls)
     electrons    :  15615.91s CPU  16115.33s WALL (     237 calls)
     update_pot   :   2077.17s CPU   2103.98s WALL (     235 calls)
     forces       :   1467.92s CPU   1509.78s WALL (     237 calls)
     stress       :   3640.87s CPU   3760.51s WALL (     237 calls)

     Called by init_run:
     wfcinit      :      6.54s CPU      7.98s WALL (       2 calls)
     potinit      :      4.72s CPU      4.89s WALL (       2 calls)
     hinit0       :      4.85s CPU      5.00s WALL (       2 calls)

     Called by electrons:
     c_bands      :  11984.62s CPU  12209.83s WALL (    1917 calls)
     sum_band     :   2158.36s CPU   2186.92s WALL (    1917 calls)
     v_of_rho     :   1280.28s CPU   1442.06s WALL (    2064 calls)
     mix_rho      :    227.06s CPU    294.51s WALL (    1917 calls)

     Called by c_bands:
     init_us_2    :    206.11s CPU    217.92s WALL (    3836 calls)
     cegterg      :  10340.31s CPU  10547.70s WALL (    1917 calls)

     Called by sum_band:

     Called by *egterg:
     h_psi        :   9431.56s CPU   9580.51s WALL (    8573 calls)
     g_psi        :     29.73s CPU     30.18s WALL (    6654 calls)
     cdiaghg      :     18.89s CPU     19.23s WALL (    8246 calls)

     Called by h_psi:
     h_psi:pot    :   9412.72s CPU   9529.38s WALL (    8573 calls)
     h_psi:calbec :    644.10s CPU    665.09s WALL (    8573 calls)
     vloc_psi     :   8121.92s CPU   8215.02s WALL (    8573 calls)
     add_vuspsi   :    646.58s CPU    649.19s WALL (    8573 calls)

     General routines
     calbec       :    776.79s CPU    802.42s WALL (    9758 calls)
     fft          :   1199.51s CPU   1333.65s WALL (   26890 calls)
     ffts         :    101.58s CPU    102.56s WALL (    1917 calls)
     fftw         :   9026.82s CPU   9125.34s WALL (  397237 calls)
 
     Parallel routines
     fft_scatt_xy :   1180.91s CPU   1198.10s WALL (  426044 calls)
     fft_scatt_yz :   5919.68s CPU   6007.76s WALL (  426044 calls)
 
     PWSCF        :     6h21m CPU       21h 6m WALL

      33h
 
   This run was terminated on:   0:32:25  26Nov2020            

=------------------------------------------------------------------------------=
   JOB DONE.
=------------------------------------------------------------------------------=
