
     Program PWSCF v.6.3MaX starts on 26Nov2020 at  0:32:31 

     This program is part of the open-source Quantum ESPRESSO suite
     for quantum simulation of materials; please cite
         "P. Giannozzi et al., J. Phys.:Condens. Matter 21 395502 (2009);
         "P. Giannozzi et al., J. Phys.:Condens. Matter 29 465901 (2017);
          URL http://www.quantum-espresso.org", 
     in publications or presentations arising from this work. More details at
     http://www.quantum-espresso.org/quote

     Parallel version (MPI), running on     8 processors

     MPI processes distributed on     3 nodes
     R & G space division:  proc/nbgrp/npool/nimage =       8
     Waiting for input...
     Reading input from standard input

     Current dimensions of program PWSCF are:
     Max number of different atomic species (ntypx) = 10
     Max number of k-points (npk) =  40000
     Max angular momentum in pseudopotentials (lmaxx) =  3

     Subspace diagonalization in iterative solution of the eigenvalue problem:
     a serial algorithm will be used

     Message from routine find_sym:
     Not a group! Trying with lower acceptance parameter...
     Message from routine find_sym:
     Symmetry operations form a group
 
     Parallelization info
     --------------------
     sticks:   dense  smooth     PW     G-vecs:    dense   smooth      PW
     Min        3123    3123    778               448599   448599   56048
     Max        3124    3124    779               448604   448604   56052
     Sum       24985   24985   6229              3588803  3588803  448403
 


     bravais-lattice index     =            4
     lattice parameter (alat)  =      33.6810  a.u.
     unit-cell volume          =   37130.3117 (a.u.)^3
     number of atoms/cell      =           31
     number of atomic types    =            1
     number of electrons       =        93.00
     number of Kohn-Sham states=           56
     kinetic-energy cutoff     =      80.0000  Ry
     charge density cutoff     =     320.0000  Ry
     convergence threshold     =      1.0E-06
     mixing beta               =       0.4000
     number of iterations used =            8  plain     mixing
     Exchange-correlation      = PBE ( 1  4  3  4 0 0)
     nstep                     =          300


     celldm(1)=  33.680967  celldm(2)=   0.000000  celldm(3)=   1.122133
     celldm(4)=   0.000000  celldm(5)=   0.000000  celldm(6)=   0.000000

     crystal axes: (cart. coord. in units of alat)
               a(1) = (   1.000000   0.000000   0.000000 )  
               a(2) = (  -0.500000   0.866025   0.000000 )  
               a(3) = (   0.000000   0.000000   1.122133 )  

     reciprocal axes: (cart. coord. in units 2 pi/alat)
               b(1) = (  1.000000  0.577350  0.000000 )  
               b(2) = (  0.000000  1.154701  0.000000 )  
               b(3) = (  0.000000  0.000000  0.891160 )  


     PseudoPot. # 1 for Al read from file:
     ./Al.upf
     MD5 check sum: 4974d48a734c9d7d1eb6780a1419d19d
     Pseudo is Norm-conserving + core correction, Zval =  3.0
     Generated using ONCVPSP code by D. R. Hamann
     Using radial grid of 1876 points,  6 beta functions with: 
                l(1) =   0
                l(2) =   0
                l(3) =   1
                l(4) =   1
                l(5) =   2
                l(6) =   2

     atomic species   valence    mass     pseudopotential
        Al             3.00    29.98200     Al( 1.00)

      2 Sym. Ops. (no inversion) found



   Cartesian axes

     site n.     atom                  positions (alat units)
         1           Al  tau(   1) = (  -0.0000000   0.1443393   0.0000000  )
         2           Al  tau(   2) = (   0.1250015   0.0721696   0.0000000  )
         3           Al  tau(   3) = (  -0.1249997   0.3608472   0.0000000  )
         4           Al  tau(   4) = (   0.0000018   0.2886775   0.0000000  )
         5           Al  tau(   5) = (  -0.2499994   0.5773550   0.0000000  )
         6           Al  tau(   6) = (  -0.1249979   0.5051854   0.0000000  )
         7           Al  tau(   7) = (  -0.3749991   0.7938629   0.0000000  )
         8           Al  tau(   8) = (  -0.2499976   0.7216932   0.0000000  )
         9           Al  tau(   9) = (   0.2500011   0.1443403   0.0000000  )
        10           Al  tau(  10) = (   0.3750027   0.0721706   0.0000000  )
        11           Al  tau(  11) = (   0.1250014   0.3608482   0.0000000  )
        12           Al  tau(  12) = (   0.2500030   0.2886785   0.0000000  )
        13           Al  tau(  13) = (   0.1250033   0.5051864   0.0000000  )
        14           Al  tau(  14) = (  -0.1249980   0.7938639   0.0000000  )
        15           Al  tau(  15) = (   0.0000036   0.7216942   0.0000000  )
        16           Al  tau(  16) = (   0.5000023   0.1443413   0.0000000  )
        17           Al  tau(  17) = (   0.6250038   0.0721717   0.0000000  )
        18           Al  tau(  18) = (   0.3750026   0.3608492   0.0000000  )
        19           Al  tau(  19) = (   0.5000041   0.2886795   0.0000000  )
        20           Al  tau(  20) = (   0.2500029   0.5773571   0.0000000  )
        21           Al  tau(  21) = (   0.3750044   0.5051874   0.0000000  )
        22           Al  tau(  22) = (   0.1250032   0.7938649   0.0000000  )
        23           Al  tau(  23) = (   0.2500047   0.7216953   0.0000000  )
        24           Al  tau(  24) = (   0.7500035   0.1443423   0.0000000  )
        25           Al  tau(  25) = (   0.8750050   0.0721727   0.0000000  )
        26           Al  tau(  26) = (   0.6250038   0.3608502   0.0000000  )
        27           Al  tau(  27) = (   0.7500053   0.2886805   0.0000000  )
        28           Al  tau(  28) = (   0.5000041   0.5773581   0.0000000  )
        29           Al  tau(  29) = (   0.6250056   0.5051884   0.0000000  )
        30           Al  tau(  30) = (   0.3750044   0.7938660   0.0000000  )
        31           Al  tau(  31) = (   0.5000059   0.7216963   0.0000000  )

     number of k points=     1  Methfessel-Paxton smearing, width (Ry)=  0.0500
                       cart. coord. in units 2pi/alat
        k(    1) = (   0.0000000   0.0000000   0.0000000), wk =   2.0000000

     Dense  grid:  3588803 G-vectors     FFT dimensions: ( 192, 192, 216)

     Estimated max dynamical RAM per process >       1.15 GB

     Estimated total dynamical RAM >       9.23 GB

     Initial potential from superposition of free atoms

     starting charge   92.92414, renormalised to   93.00000

     negative rho (up, down):  9.278E-05 0.000E+00
     Starting wfcs are  124 randomized atomic wfcs

     total cpu time spent up to now is       31.1 secs

     Self-consistent Calculation

     iteration #  1     ecut=    80.00 Ry     beta= 0.40
     Davidson diagonalization with overlap
     ethr =  1.00E-02,  avg # of iterations =  2.0

     total cpu time spent up to now is       61.3 secs

     total energy              =    -140.64176742 Ry
     Harris-Foulkes estimate   =    -141.23595506 Ry
     estimated scf accuracy    <       1.54918100 Ry

     iteration #  2     ecut=    80.00 Ry     beta= 0.40
     Davidson diagonalization with overlap
     ethr =  1.67E-03,  avg # of iterations =  5.0

     total cpu time spent up to now is       93.0 secs

     total energy              =    -140.21913104 Ry
     Harris-Foulkes estimate   =    -141.45909596 Ry
     estimated scf accuracy    <       6.75270855 Ry

     iteration #  3     ecut=    80.00 Ry     beta= 0.40
     Davidson diagonalization with overlap
     ethr =  1.67E-03,  avg # of iterations =  5.0

     total cpu time spent up to now is      125.1 secs

     total energy              =    -140.82763522 Ry
     Harris-Foulkes estimate   =    -141.02285226 Ry
     estimated scf accuracy    <       1.17139145 Ry

     iteration #  4     ecut=    80.00 Ry     beta= 0.40
     Davidson diagonalization with overlap
     ethr =  1.26E-03,  avg # of iterations =  1.0

     total cpu time spent up to now is      150.6 secs

     total energy              =    -140.90041547 Ry
     Harris-Foulkes estimate   =    -140.94404569 Ry
     estimated scf accuracy    <       0.14961736 Ry

     iteration #  5     ecut=    80.00 Ry     beta= 0.40
     Davidson diagonalization with overlap
     ethr =  1.61E-04,  avg # of iterations =  4.0

     total cpu time spent up to now is      178.5 secs

     total energy              =    -140.91296589 Ry
     Harris-Foulkes estimate   =    -140.95613745 Ry
     estimated scf accuracy    <       0.31004948 Ry

     iteration #  6     ecut=    80.00 Ry     beta= 0.40
     Davidson diagonalization with overlap
     ethr =  1.61E-04,  avg # of iterations =  3.0

     total cpu time spent up to now is      203.9 secs

     total energy              =    -140.93237740 Ry
     Harris-Foulkes estimate   =    -140.93470592 Ry
     estimated scf accuracy    <       0.01007813 Ry

     iteration #  7     ecut=    80.00 Ry     beta= 0.40
     Davidson diagonalization with overlap
     ethr =  1.08E-05,  avg # of iterations = 11.0

     total cpu time spent up to now is      248.7 secs

     total energy              =    -140.93547209 Ry
     Harris-Foulkes estimate   =    -140.93691768 Ry
     estimated scf accuracy    <       0.00730689 Ry

     iteration #  8     ecut=    80.00 Ry     beta= 0.40
     Davidson diagonalization with overlap
     ethr =  7.86E-06,  avg # of iterations =  3.0

     total cpu time spent up to now is      275.2 secs

     total energy              =    -140.93562404 Ry
     Harris-Foulkes estimate   =    -140.93668374 Ry
     estimated scf accuracy    <       0.00563117 Ry

     iteration #  9     ecut=    80.00 Ry     beta= 0.40
     Davidson diagonalization with overlap
     ethr =  6.06E-06,  avg # of iterations =  1.0

     total cpu time spent up to now is      297.1 secs

     total energy              =    -140.93586065 Ry
     Harris-Foulkes estimate   =    -140.93614045 Ry
     estimated scf accuracy    <       0.00166472 Ry

     iteration # 10     ecut=    80.00 Ry     beta= 0.40
     Davidson diagonalization with overlap
     ethr =  1.79E-06,  avg # of iterations =  4.0

     total cpu time spent up to now is      324.1 secs

     total energy              =    -140.93603286 Ry
     Harris-Foulkes estimate   =    -140.93609551 Ry
     estimated scf accuracy    <       0.00029410 Ry

     iteration # 11     ecut=    80.00 Ry     beta= 0.40
     Davidson diagonalization with overlap
     ethr =  3.16E-07,  avg # of iterations =  5.0

     total cpu time spent up to now is      354.2 secs

     total energy              =    -140.93608904 Ry
     Harris-Foulkes estimate   =    -140.93612754 Ry
     estimated scf accuracy    <       0.00021079 Ry

     iteration # 12     ecut=    80.00 Ry     beta= 0.40
     Davidson diagonalization with overlap
     ethr =  2.27E-07,  avg # of iterations =  3.0

     total cpu time spent up to now is      380.7 secs

     total energy              =    -140.93610478 Ry
     Harris-Foulkes estimate   =    -140.93612205 Ry
     estimated scf accuracy    <       0.00011294 Ry

     iteration # 13     ecut=    80.00 Ry     beta= 0.40
     Davidson diagonalization with overlap
     ethr =  1.21E-07,  avg # of iterations =  1.0

     total cpu time spent up to now is      405.6 secs

     total energy              =    -140.93611185 Ry
     Harris-Foulkes estimate   =    -140.93611454 Ry
     estimated scf accuracy    <       0.00001260 Ry

     iteration # 14     ecut=    80.00 Ry     beta= 0.40
     Davidson diagonalization with overlap
     ethr =  1.35E-08,  avg # of iterations =  5.0

     total cpu time spent up to now is      436.0 secs

     total energy              =    -140.93611353 Ry
     Harris-Foulkes estimate   =    -140.93611547 Ry
     estimated scf accuracy    <       0.00000767 Ry

     iteration # 15     ecut=    80.00 Ry     beta= 0.40
     Davidson diagonalization with overlap
     ethr =  8.25E-09,  avg # of iterations =  4.0

     total cpu time spent up to now is      464.6 secs

     total energy              =    -140.93611355 Ry
     Harris-Foulkes estimate   =    -140.93611499 Ry
     estimated scf accuracy    <       0.00000922 Ry

     iteration # 16     ecut=    80.00 Ry     beta= 0.40
     Davidson diagonalization with overlap
     ethr =  8.25E-09,  avg # of iterations =  1.0

     total cpu time spent up to now is      488.2 secs

     total energy              =    -140.93611396 Ry
     Harris-Foulkes estimate   =    -140.93611437 Ry
     estimated scf accuracy    <       0.00000189 Ry

     iteration # 17     ecut=    80.00 Ry     beta= 0.40
     Davidson diagonalization with overlap
     ethr =  2.03E-09,  avg # of iterations =  4.0

     total cpu time spent up to now is      515.6 secs

     End of self-consistent calculation

          k = 0.0000 0.0000 0.0000 (448403 PWs)   bands (ev):

    -9.9529  -9.4484  -9.4330  -9.4329  -9.4258  -9.4257  -9.1459  -8.4047
    -8.4047  -8.3882  -8.3881  -8.3798  -8.3032  -8.2570  -8.2570  -7.5865
    -6.9324  -6.9323  -6.8232  -6.4865  -6.4772  -6.4771  -6.3702  -6.3700
    -5.4641  -4.8434  -4.8434  -4.8368  -4.7356  -4.7355  -4.4780  -4.4680
    -4.4428  -4.4427  -4.1225  -4.1224  -3.9779  -3.4712  -3.4688  -3.4687
    -3.4576  -3.4575  -3.4018  -3.2744  -3.2743  -3.2224  -3.2075  -2.9743
    -2.9653  -2.9653  -2.9389  -2.5198  -2.5196  -2.4493  -2.4488  -2.4315

     the Fermi energy is    -3.0910 ev

!    total energy              =    -140.93611327 Ry
     Harris-Foulkes estimate   =    -140.93611411 Ry
     estimated scf accuracy    <       0.00000090 Ry

     The total energy is the sum of the following terms:

     one-electron contribution =    -502.03550612 Ry
     hartree contribution      =     259.76235898 Ry
     xc contribution           =     -61.33566636 Ry
     ewald contribution        =     162.75369137 Ry
     smearing contrib. (-TS)   =      -0.08099113 Ry

     convergence has been achieved in  17 iterations

     Forces acting on atoms (cartesian axes, Ry/au):

     atom    1 type  1   force =     0.00002245   -0.00129087    0.00000000
     atom    2 type  1   force =     0.00044591    0.00027560    0.00000000
     atom    3 type  1   force =     0.00063893   -0.00328110    0.00000000
     atom    4 type  1   force =    -0.00000919    0.00129882    0.00000000
     atom    5 type  1   force =    -0.00254219    0.00220177    0.00000000
     atom    6 type  1   force =     0.01311201    0.00756277    0.00000000
     atom    7 type  1   force =    -0.00108124    0.00063198    0.00000000
     atom    8 type  1   force =     0.00112880   -0.00063502    0.00000000
     atom    9 type  1   force =     0.00201857    0.00115528    0.00000000
     atom   10 type  1   force =    -0.00157221   -0.00517658    0.00000000
     atom   11 type  1   force =    -0.00061547   -0.00331487    0.00000000
     atom   12 type  1   force =    -0.00530883    0.00123094    0.00000000
     atom   13 type  1   force =    -0.01312568    0.00757806    0.00000000
     atom   14 type  1   force =    -0.00318410    0.00107585    0.00000000
     atom   15 type  1   force =    -0.00001082   -0.01513709    0.00000000
     atom   16 type  1   force =    -0.00000009    0.00215470    0.00000000
     atom   17 type  1   force =     0.00156452   -0.00517390    0.00000000
     atom   18 type  1   force =     0.00187917   -0.00106806    0.00000000
     atom   19 type  1   force =     0.00001587   -0.00000402    0.00000000
     atom   20 type  1   force =     0.00256005    0.00217908    0.00000000
     atom   21 type  1   force =    -0.00371952    0.00396169    0.00000000
     atom   22 type  1   force =     0.00316531    0.00108694    0.00000000
     atom   23 type  1   force =    -0.00113153   -0.00063379    0.00000000
     atom   24 type  1   force =    -0.00201280    0.00117666    0.00000000
     atom   25 type  1   force =    -0.00046674    0.00028097    0.00000000
     atom   26 type  1   force =    -0.00186222   -0.00107730    0.00000000
     atom   27 type  1   force =     0.00525876    0.00122729    0.00000000
     atom   28 type  1   force =     0.00001202   -0.00232632    0.00000000
     atom   29 type  1   force =     0.00370973    0.00395034    0.00000000
     atom   30 type  1   force =     0.00114178    0.00061326    0.00000000
     atom   31 type  1   force =    -0.00003124   -0.00052309    0.00000000

     Total force =     0.031191     Total SCF correction =     0.000759


     Computing stress (Cartesian axis) and pressure

          total   stress  (Ry/bohr**3)                   (kbar)     P=   -0.57
  -0.00000579   0.00000002   0.00000000         -0.85      0.00      0.00
   0.00000002  -0.00000578   0.00000000          0.00     -0.85      0.00
   0.00000000   0.00000000  -0.00000000          0.00      0.00     -0.00


     BFGS Geometry Optimization

     number of scf cycles    =   1
     number of bfgs steps    =   0

     enthalpy new            =    -140.9361132673 Ry

     new trust radius        =       0.0151562051 bohr
     new conv_thr            =       0.0000010000 Ry

     new unit-cell volume =  37119.57627 a.u.^3 (  5500.55363 Ang^3 )
     density =      0.28059 g/cm^3

CELL_PARAMETERS (alat= 33.68096681)
   0.999855239   0.000000413   0.000000000
  -0.499927262   0.865900153   0.000000000
   0.000000000   0.000000000   1.122132950

ATOMIC_POSITIONS (angstrom)
Al       0.000012355   2.571533419   0.000000000
Al       2.227840688   1.286254439   0.000000000
Al      -2.227232002   6.428785396   0.000000000
Al       0.000029355   5.145100834   0.000000000
Al      -4.456485674  10.289991394   0.000000000
Al      -2.220598747   9.006720108   0.000000000
Al      -6.683283221  14.147465823   0.000000000
Al      -4.454509609  12.860687660   0.000000000
Al       4.456244269   2.572847710   0.000000000
Al       6.681948662   1.283389721   0.000000000
Al       2.227280060   6.428787556   0.000000000
Al       4.452401080   5.145084952   0.000000000
Al       2.220694641   9.006748224   0.000000000
Al      -2.229220080  14.147720711   0.000000000
Al       0.000063183  12.853034632   0.000000000
Al       8.910351963   2.573396537   0.000000000
Al      11.138784074   1.283411168   0.000000000
Al       6.683775742   6.429996382   0.000000000
Al       8.910394151   5.144451569   0.000000000
Al       4.456565462  10.290019455   0.000000000
Al       6.680847213   9.004854837   0.000000000
Al       2.229315167  14.147746608   0.000000000
Al       4.454645986  12.860728375   0.000000000
Al      13.364462804   2.572899083   0.000000000
Al      15.592885104   1.286317377   0.000000000
Al      11.136971936   6.430011524   0.000000000
Al      13.368343934   5.145123088   0.000000000
Al       8.910393061  10.287655676   0.000000000
Al      11.139953804   9.004868865   0.000000000
Al       6.683420281  14.147516015   0.000000000
Al       8.910403917  12.860806974   0.000000000



     Writing output data file 13al_planar_2x2_vcr.save/
     NEW-OLD atomic charge density approx. for the potential

     negative rho (up, down):  2.991E-07 0.000E+00
     extrapolated charge   92.97313, renormalised to   93.00000

     total cpu time spent up to now is      590.5 secs

     Self-consistent Calculation

     iteration #  1     ecut=    80.00 Ry     beta= 0.40
     Davidson diagonalization with overlap
     ethr =  1.00E-06,  avg # of iterations =  4.0

     negative rho (up, down):  1.476E-07 0.000E+00

     total cpu time spent up to now is      622.7 secs

     total energy              =    -140.93700770 Ry
     Harris-Foulkes estimate   =    -141.07012062 Ry
     estimated scf accuracy    <       0.00018823 Ry

     iteration #  2     ecut=    80.00 Ry     beta= 0.40
     Davidson diagonalization with overlap
     ethr =  2.02E-07,  avg # of iterations = 20.0

     negative rho (up, down):  1.343E-07 0.000E+00

     total cpu time spent up to now is      667.6 secs

     total energy              =    -140.93682973 Ry
     Harris-Foulkes estimate   =    -140.93735640 Ry
     estimated scf accuracy    <       0.00446722 Ry

     iteration #  3     ecut=    80.00 Ry     beta= 0.40
     Davidson diagonalization with overlap
     ethr =  2.02E-07,  avg # of iterations =  5.0

     negative rho (up, down):  1.022E-07 0.000E+00

     total cpu time spent up to now is      699.7 secs

     total energy              =    -140.93707270 Ry
     Harris-Foulkes estimate   =    -140.93707818 Ry
     estimated scf accuracy    <       0.00003068 Ry

     iteration #  4     ecut=    80.00 Ry     beta= 0.40
     Davidson diagonalization with overlap
     ethr =  3.30E-08,  avg # of iterations =  4.0

     negative rho (up, down):  7.721E-08 0.000E+00

     total cpu time spent up to now is      725.8 secs

     total energy              =    -140.93707227 Ry
     Harris-Foulkes estimate   =    -140.93707624 Ry
     estimated scf accuracy    <       0.00002003 Ry

     iteration #  5     ecut=    80.00 Ry     beta= 0.40
     Davidson diagonalization with overlap
     ethr =  2.15E-08,  avg # of iterations =  4.0

     negative rho (up, down):  3.562E-08 0.000E+00

     total cpu time spent up to now is      750.3 secs

     total energy              =    -140.93707216 Ry
     Harris-Foulkes estimate   =    -140.93707634 Ry
     estimated scf accuracy    <       0.00002658 Ry

     iteration #  6     ecut=    80.00 Ry     beta= 0.40
     Davidson diagonalization with overlap
     ethr =  2.15E-08,  avg # of iterations =  4.0

     negative rho (up, down):  1.773E-08 0.000E+00

     total cpu time spent up to now is      774.5 secs

     total energy              =    -140.93707342 Ry
     Harris-Foulkes estimate   =    -140.93707509 Ry
     estimated scf accuracy    <       0.00000760 Ry

     iteration #  7     ecut=    80.00 Ry     beta= 0.40
     Davidson diagonalization with overlap
     ethr =  8.17E-09,  avg # of iterations =  4.0

     negative rho (up, down):  1.128E-08 0.000E+00

     total cpu time spent up to now is      799.8 secs

     total energy              =    -140.93707409 Ry
     Harris-Foulkes estimate   =    -140.93707517 Ry
     estimated scf accuracy    <       0.00000702 Ry

     iteration #  8     ecut=    80.00 Ry     beta= 0.40
     Davidson diagonalization with overlap
     ethr =  7.55E-09,  avg # of iterations =  1.0

     total cpu time spent up to now is      823.6 secs

     End of self-consistent calculation

          k = 0.0000 0.0000 0.0000 (448403 PWs)   bands (ev):

    -9.9536  -9.4496  -9.4340  -9.4331  -9.4254  -9.4248  -9.1444  -8.4060
    -8.4042  -8.3851  -8.3848  -8.3809  -8.3056  -8.2546  -8.2539  -7.5862
    -6.9326  -6.9325  -6.8235  -6.4818  -6.4783  -6.4775  -6.3724  -6.3721
    -5.4690  -4.8402  -4.8400  -4.8361  -4.7368  -4.7365  -4.4777  -4.4678
    -4.4433  -4.4430  -4.1246  -4.1245  -3.9782  -3.4722  -3.4673  -3.4669
    -3.4589  -3.4578  -3.3997  -3.2742  -3.2735  -3.2214  -3.2173  -2.9707
    -2.9640  -2.9637  -2.9407  -2.5181  -2.5178  -2.4491  -2.4460  -2.4448

     the Fermi energy is    -3.0912 ev

!    total energy              =    -140.93707456 Ry
     Harris-Foulkes estimate   =    -140.93707469 Ry
     estimated scf accuracy    <       0.00000034 Ry

     The total energy is the sum of the following terms:

     one-electron contribution =    -502.12299513 Ry
     hartree contribution      =     259.80536093 Ry
     xc contribution           =     -61.33368525 Ry
     ewald contribution        =     162.79524040 Ry
     smearing contrib. (-TS)   =      -0.08099551 Ry

     convergence has been achieved in   8 iterations

     Forces acting on atoms (cartesian axes, Ry/au):

     atom    1 type  1   force =     0.00003011   -0.00104594    0.00000000
     atom    2 type  1   force =     0.00059656    0.00034361    0.00000000
     atom    3 type  1   force =     0.00051098   -0.00212825    0.00000000
     atom    4 type  1   force =     0.00003215    0.00088756    0.00000000
     atom    5 type  1   force =    -0.00162493    0.00135400    0.00000000
     atom    6 type  1   force =     0.01293544    0.00749647    0.00000000
     atom    7 type  1   force =    -0.00091842    0.00054021    0.00000000
     atom    8 type  1   force =     0.00066680   -0.00037194    0.00000000
     atom    9 type  1   force =     0.00197243    0.00123407    0.00000000
     atom   10 type  1   force =    -0.00121847   -0.00473949    0.00000000
     atom   11 type  1   force =    -0.00056025   -0.00214395    0.00000000
     atom   12 type  1   force =    -0.00472603    0.00111615    0.00000000
     atom   13 type  1   force =    -0.01295574    0.00748241    0.00000000
     atom   14 type  1   force =    -0.00199293    0.00072662    0.00000000
     atom   15 type  1   force =    -0.00002610   -0.01494676    0.00000000
     atom   16 type  1   force =     0.00005038    0.00158985    0.00000000
     atom   17 type  1   force =     0.00119218   -0.00462839    0.00000000
     atom   18 type  1   force =     0.00148898   -0.00085779    0.00000000
     atom   19 type  1   force =     0.00000747   -0.00000572    0.00000000
     atom   20 type  1   force =     0.00156814    0.00154813    0.00000000
     atom   21 type  1   force =    -0.00332760    0.00352989    0.00000000
     atom   22 type  1   force =     0.00209297    0.00062367    0.00000000
     atom   23 type  1   force =    -0.00075695   -0.00046541    0.00000000
     atom   24 type  1   force =    -0.00218056    0.00127821    0.00000000
     atom   25 type  1   force =    -0.00043475    0.00025299    0.00000000
     atom   26 type  1   force =    -0.00135241   -0.00083401    0.00000000
     atom   27 type  1   force =     0.00459627    0.00126639    0.00000000
     atom   28 type  1   force =    -0.00006558   -0.00233062    0.00000000
     atom   29 type  1   force =     0.00347987    0.00342599    0.00000000
     atom   30 type  1   force =     0.00092503    0.00049574    0.00000000
     atom   31 type  1   force =    -0.00000505   -0.00069368    0.00000000

     Total force =     0.029521     Total SCF correction =     0.000307


     Computing stress (Cartesian axis) and pressure

          total   stress  (Ry/bohr**3)                   (kbar)     P=   -0.58
  -0.00000590  -0.00000003   0.00000000         -0.87     -0.00      0.00
  -0.00000003  -0.00000594   0.00000000         -0.00     -0.87      0.00
   0.00000000   0.00000000   0.00000000          0.00      0.00      0.00


     number of scf cycles    =   2
     number of bfgs steps    =   1

     enthalpy old            =    -140.9361132673 Ry
     enthalpy new            =    -140.9370745628 Ry

     CASE: enthalpy_new < enthalpy_old


     WARNING: bfgs curvature condition failed, Theta= 0.846
     new trust radius        =       0.0227310105 bohr
     new conv_thr            =       0.0000009613 Ry

     new unit-cell volume =  37103.14204 a.u.^3 (  5498.11833 Ang^3 )
     density =      0.28071 g/cm^3

CELL_PARAMETERS (alat= 33.68096681)
   0.999634196   0.000000097   0.000000000
  -0.499817014   0.865708331   0.000000000
   0.000000000   0.000000000   1.122132950

ATOMIC_POSITIONS (angstrom)
Al       0.000032987   2.570043361   0.000000000
Al       2.227773063   1.286219945   0.000000000
Al      -2.226289388   6.425264912   0.000000000
Al       0.000039276   5.144810353   0.000000000
Al      -4.457116574  10.289083903   0.000000000
Al      -2.209710205   9.010738955   0.000000000
Al      -6.682600049  14.144794496   0.000000000
Al      -4.452837729  12.857450332   0.000000000
Al       4.456850762   2.573235368   0.000000000
Al       6.679375968   1.279164918   0.000000000
Al       2.226318900   6.425246928   0.000000000
Al       4.447437875   5.144874317   0.000000000
Al       2.209786443   9.010764464   0.000000000
Al      -2.230732509  14.145285065   0.000000000
Al       0.000043485  12.838172027   0.000000000
Al       8.908404293   2.574287382   0.000000000
Al      11.137401592   1.279236650   0.000000000
Al       6.683619887   6.427811014   0.000000000
Al       8.908431514   5.143304183   0.000000000
Al       4.457170017  10.289190111   0.000000000
Al       6.676573317   9.005825692   0.000000000
Al       2.230857952  14.145266293   0.000000000
Al       4.452923832  12.857445932   0.000000000
Al      13.359821830   2.573311413   0.000000000
Al      15.589079035   1.286239076   0.000000000
Al      11.133252240   6.427832457   0.000000000
Al      13.369287738   5.144977054   0.000000000
Al       8.908394096  10.283510447   0.000000000
Al      11.140348541   9.005786937   0.000000000
Al       6.682751907  14.144813736   0.000000000
Al       8.908417000  12.857456667   0.000000000



     Writing output data file 13al_planar_2x2_vcr.save/
     NEW-OLD atomic charge density approx. for the potential

     negative rho (up, down):  4.861E-07 0.000E+00
     extrapolated charge   92.95884, renormalised to   93.00000

     total cpu time spent up to now is      901.3 secs

     Self-consistent Calculation

     iteration #  1     ecut=    80.00 Ry     beta= 0.40
     Davidson diagonalization with overlap
     ethr =  1.00E-06,  avg # of iterations =  5.0

     negative rho (up, down):  2.434E-07 0.000E+00

     total cpu time spent up to now is      938.0 secs

     total energy              =    -140.93838479 Ry
     Harris-Foulkes estimate   =    -141.14220467 Ry
     estimated scf accuracy    <       0.00013336 Ry

     iteration #  2     ecut=    80.00 Ry     beta= 0.40
     Davidson diagonalization with overlap
     ethr =  1.43E-07,  avg # of iterations =  5.0

     negative rho (up, down):  2.200E-07 0.000E+00

     total cpu time spent up to now is      973.9 secs

     total energy              =    -140.93835082 Ry
     Harris-Foulkes estimate   =    -140.93857924 Ry
     estimated scf accuracy    <       0.00180385 Ry

     iteration #  3     ecut=    80.00 Ry     beta= 0.40
     Davidson diagonalization with overlap
     ethr =  1.43E-07,  avg # of iterations =  4.0

     negative rho (up, down):  1.387E-07 0.000E+00

     total cpu time spent up to now is     1006.8 secs

     total energy              =    -140.93845652 Ry
     Harris-Foulkes estimate   =    -140.93846273 Ry
     estimated scf accuracy    <       0.00002476 Ry

     iteration #  4     ecut=    80.00 Ry     beta= 0.40
     Davidson diagonalization with overlap
     ethr =  2.66E-08,  avg # of iterations =  4.0

     negative rho (up, down):  8.773E-08 0.000E+00

     total cpu time spent up to now is     1032.4 secs

     total energy              =    -140.93845721 Ry
     Harris-Foulkes estimate   =    -140.93846047 Ry
     estimated scf accuracy    <       0.00001310 Ry

     iteration #  5     ecut=    80.00 Ry     beta= 0.40
     Davidson diagonalization with overlap
     ethr =  1.41E-08,  avg # of iterations =  4.0

     negative rho (up, down):  4.915E-08 0.000E+00

     total cpu time spent up to now is     1058.2 secs

     total energy              =    -140.93845640 Ry
     Harris-Foulkes estimate   =    -140.93846166 Ry
     estimated scf accuracy    <       0.00003150 Ry

     iteration #  6     ecut=    80.00 Ry     beta= 0.40
     Davidson diagonalization with overlap
     ethr =  1.41E-08,  avg # of iterations =  4.0

     negative rho (up, down):  1.900E-08 0.000E+00

     total cpu time spent up to now is     1083.0 secs

     total energy              =    -140.93845901 Ry
     Harris-Foulkes estimate   =    -140.93845982 Ry
     estimated scf accuracy    <       0.00000436 Ry

     iteration #  7     ecut=    80.00 Ry     beta= 0.40
     Davidson diagonalization with overlap
     ethr =  4.68E-09,  avg # of iterations =  5.0

     negative rho (up, down):  1.233E-08 0.000E+00

     total cpu time spent up to now is     1112.5 secs

     total energy              =    -140.93845921 Ry
     Harris-Foulkes estimate   =    -140.93846021 Ry
     estimated scf accuracy    <       0.00000691 Ry

     iteration #  8     ecut=    80.00 Ry     beta= 0.40
     Davidson diagonalization with overlap
     ethr =  4.68E-09,  avg # of iterations =  2.0

     total cpu time spent up to now is     1135.5 secs

     End of self-consistent calculation

          k = 0.0000 0.0000 0.0000 (448403 PWs)   bands (ev):

    -9.9543  -9.4501  -9.4361  -9.4351  -9.4235  -9.4231  -9.1417  -8.4049
    -8.4033  -8.3855  -8.3804  -8.3800  -8.3077  -8.2507  -8.2502  -7.5845
    -6.9325  -6.9323  -6.8231  -6.4788  -6.4779  -6.4758  -6.3752  -6.3750
    -5.4770  -4.8348  -4.8346  -4.8334  -4.7376  -4.7374  -4.4756  -4.4667
    -4.4436  -4.4434  -4.1286  -4.1286  -3.9784  -3.4722  -3.4667  -3.4661
    -3.4589  -3.4582  -3.3972  -3.2722  -3.2716  -3.2326  -3.2197  -2.9653
    -2.9614  -2.9611  -2.9433  -2.5141  -2.5138  -2.4466  -2.4414  -2.4413

     the Fermi energy is    -3.0908 ev

!    total energy              =    -140.93845960 Ry
     Harris-Foulkes estimate   =    -140.93845971 Ry
     estimated scf accuracy    <       0.00000027 Ry

     The total energy is the sum of the following terms:

     one-electron contribution =    -502.26110929 Ry
     hartree contribution      =     259.87467770 Ry
     xc contribution           =     -61.33145658 Ry
     ewald contribution        =     162.85980424 Ry
     smearing contrib. (-TS)   =      -0.08037566 Ry

     convergence has been achieved in   8 iterations

     Forces acting on atoms (cartesian axes, Ry/au):

     atom    1 type  1   force =     0.00003033   -0.00069896    0.00000000
     atom    2 type  1   force =     0.00086850    0.00049577    0.00000000
     atom    3 type  1   force =     0.00066029   -0.00031911    0.00000000
     atom    4 type  1   force =     0.00004472    0.00041750    0.00000000
     atom    5 type  1   force =     0.00002276    0.00061551    0.00000000
     atom    6 type  1   force =     0.01279020    0.00740146    0.00000000
     atom    7 type  1   force =    -0.00062336    0.00036697    0.00000000
     atom    8 type  1   force =     0.00028431   -0.00015812    0.00000000
     atom    9 type  1   force =     0.00192904    0.00119175    0.00000000
     atom   10 type  1   force =    -0.00068380   -0.00364722    0.00000000
     atom   11 type  1   force =    -0.00068831   -0.00032938    0.00000000
     atom   12 type  1   force =    -0.00352450    0.00108658    0.00000000
     atom   13 type  1   force =    -0.01280246    0.00740001    0.00000000
     atom   14 type  1   force =    -0.00052573   -0.00032381    0.00000000
     atom   15 type  1   force =    -0.00001068   -0.01477283    0.00000000
     atom   16 type  1   force =     0.00002855    0.00087019    0.00000000
     atom   17 type  1   force =     0.00065395   -0.00357230    0.00000000
     atom   18 type  1   force =     0.00083665   -0.00048082    0.00000000
     atom   19 type  1   force =    -0.00000108   -0.00000076    0.00000000
     atom   20 type  1   force =    -0.00006514    0.00074801    0.00000000
     atom   21 type  1   force =    -0.00270951    0.00250658    0.00000000
     atom   22 type  1   force =     0.00059749   -0.00040841    0.00000000
     atom   23 type  1   force =    -0.00034341   -0.00024657    0.00000000
     atom   24 type  1   force =    -0.00209006    0.00121599    0.00000000
     atom   25 type  1   force =    -0.00073219    0.00042039    0.00000000
     atom   26 type  1   force =    -0.00073441   -0.00046174    0.00000000
     atom   27 type  1   force =     0.00341502    0.00120961    0.00000000
     atom   28 type  1   force =    -0.00005883   -0.00227103    0.00000000
     atom   29 type  1   force =     0.00280542    0.00241597    0.00000000
     atom   30 type  1   force =     0.00062568    0.00033057    0.00000000
     atom   31 type  1   force =     0.00000054   -0.00100181    0.00000000

     Total force =     0.027614     Total SCF correction =     0.000295


     Computing stress (Cartesian axis) and pressure

          total   stress  (Ry/bohr**3)                   (kbar)     P=   -0.60
  -0.00000607  -0.00000003   0.00000000         -0.89     -0.00      0.00
  -0.00000003  -0.00000611   0.00000000         -0.00     -0.90      0.00
   0.00000000   0.00000000   0.00000002          0.00      0.00      0.00


     number of scf cycles    =   3
     number of bfgs steps    =   2

     enthalpy old            =    -140.9370745628 Ry
     enthalpy new            =    -140.9384596023 Ry

     CASE: enthalpy_new < enthalpy_old

     new trust radius        =       0.0340889818 bohr
     new conv_thr            =       0.0000010000 Ry

     new unit-cell volume =  37077.96445 a.u.^3 (  5494.38739 Ang^3 )
     density =      0.28090 g/cm^3

CELL_PARAMETERS (alat= 33.68096681)
   0.999295373  -0.000000256   0.000000000
  -0.499647908   0.865414382   0.000000000
   0.000000000   0.000000000   1.122132950

ATOMIC_POSITIONS (angstrom)
Al       0.000064069   2.568002383   0.000000000
Al       2.227833794   1.286260182   0.000000000
Al      -2.224745423   6.421074978   0.000000000
Al       0.000060732   5.144052302   0.000000000
Al      -4.456983169  10.287213310   0.000000000
Al      -2.193364982   9.016690376   0.000000000
Al      -6.681341624  14.140578182   0.000000000
Al      -4.450520379  12.852627490   0.000000000
Al       4.457714599   2.573772917   0.000000000
Al       6.675799919   1.273501170   0.000000000
Al       2.224767621   6.421029683   0.000000000
Al       4.440707579   5.144517016   0.000000000
Al       2.193419640   9.016722961   0.000000000
Al      -2.232080245  14.140846082   0.000000000
Al       0.000026794  12.815797379   0.000000000
Al       8.905400525   2.575166051   0.000000000
Al      11.134914470   1.273617752   0.000000000
Al       6.682931323   6.424724300   0.000000000
Al       8.905418287   5.141551043   0.000000000
Al       4.457013959  10.287382693   0.000000000
Al       6.670487059   9.006575758   0.000000000
Al       2.232228072  14.140780267   0.000000000
Al       4.450560479  12.852565634   0.000000000
Al      13.352822464   2.573872288   0.000000000
Al      15.583050177   1.286231388   0.000000000
Al      11.127969181   6.424750473   0.000000000
Al      13.369879035   5.144689897   0.000000000
Al       8.905341540  10.277246507   0.000000000
Al      11.140440680   9.006472912   0.000000000
Al       6.681519784  14.140559499   0.000000000
Al       8.905375462  12.852138825   0.000000000



     Writing output data file 13al_planar_2x2_vcr.save/
     NEW-OLD atomic charge density approx. for the potential

     negative rho (up, down):  7.546E-07 0.000E+00
     extrapolated charge   92.93690, renormalised to   93.00000

     total cpu time spent up to now is     1212.4 secs

     Self-consistent Calculation

     iteration #  1     ecut=    80.00 Ry     beta= 0.40
     Davidson diagonalization with overlap
     ethr =  1.00E-06,  avg # of iterations =  5.0

     negative rho (up, down):  3.840E-07 0.000E+00

     total cpu time spent up to now is     1253.5 secs

     total energy              =    -140.94022827 Ry
     Harris-Foulkes estimate   =    -141.25281669 Ry
     estimated scf accuracy    <       0.00019823 Ry

     iteration #  2     ecut=    80.00 Ry     beta= 0.40
     Davidson diagonalization with overlap
     ethr =  2.13E-07,  avg # of iterations =  5.0

     negative rho (up, down):  3.438E-07 0.000E+00

     total cpu time spent up to now is     1290.1 secs

     total energy              =    -140.94021882 Ry
     Harris-Foulkes estimate   =    -140.94046212 Ry
     estimated scf accuracy    <       0.00174597 Ry

     iteration #  3     ecut=    80.00 Ry     beta= 0.40
     Davidson diagonalization with overlap
     ethr =  2.13E-07,  avg # of iterations =  4.0

     negative rho (up, down):  2.263E-07 0.000E+00

     total cpu time spent up to now is     1316.1 secs

     total energy              =    -140.94033314 Ry
     Harris-Foulkes estimate   =    -140.94035001 Ry
     estimated scf accuracy    <       0.00007970 Ry

     iteration #  4     ecut=    80.00 Ry     beta= 0.40
     Davidson diagonalization with overlap
     ethr =  8.57E-08,  avg # of iterations =  3.0

     negative rho (up, down):  1.593E-07 0.000E+00

     total cpu time spent up to now is     1339.4 secs

     total energy              =    -140.94033500 Ry
     Harris-Foulkes estimate   =    -140.94034242 Ry
     estimated scf accuracy    <       0.00002948 Ry

     iteration #  5     ecut=    80.00 Ry     beta= 0.40
     Davidson diagonalization with overlap
     ethr =  3.17E-08,  avg # of iterations =  4.0

     negative rho (up, down):  7.890E-08 0.000E+00

     total cpu time spent up to now is     1364.5 secs

     total energy              =    -140.94033403 Ry
     Harris-Foulkes estimate   =    -140.94034574 Ry
     estimated scf accuracy    <       0.00007660 Ry

     iteration #  6     ecut=    80.00 Ry     beta= 0.40
     Davidson diagonalization with overlap
     ethr =  3.17E-08,  avg # of iterations =  3.0

     negative rho (up, down):  2.353E-08 0.000E+00

     total cpu time spent up to now is     1388.7 secs

     total energy              =    -140.94034025 Ry
     Harris-Foulkes estimate   =    -140.94034080 Ry
     estimated scf accuracy    <       0.00000448 Ry

     iteration #  7     ecut=    80.00 Ry     beta= 0.40
     Davidson diagonalization with overlap
     ethr =  4.81E-09,  avg # of iterations =  6.0

     negative rho (up, down):  1.649E-08 0.000E+00

     total cpu time spent up to now is     1419.4 secs

     total energy              =    -140.94034069 Ry
     Harris-Foulkes estimate   =    -140.94034122 Ry
     estimated scf accuracy    <       0.00000300 Ry

     iteration #  8     ecut=    80.00 Ry     beta= 0.40
     Davidson diagonalization with overlap
     ethr =  3.23E-09,  avg # of iterations =  3.0

     total cpu time spent up to now is     1444.8 secs

     total energy              =    -140.94034081 Ry
     Harris-Foulkes estimate   =    -140.94034100 Ry
     estimated scf accuracy    <       0.00000124 Ry

     iteration #  9     ecut=    80.00 Ry     beta= 0.40
     Davidson diagonalization with overlap
     ethr =  1.34E-09,  avg # of iterations =  3.0

     total cpu time spent up to now is     1470.2 secs

     End of self-consistent calculation

          k = 0.0000 0.0000 0.0000 (448403 PWs)   bands (ev):

    -9.9554  -9.4507  -9.4394  -9.4385  -9.4206  -9.4201  -9.1384  -8.4038
    -8.4024  -8.3909  -8.3746  -8.3743  -8.3104  -8.2447  -8.2442  -7.5824
    -6.9326  -6.9324  -6.8230  -6.4790  -6.4779  -6.4680  -6.3784  -6.3782
    -5.4884  -4.8297  -4.8276  -4.8274  -4.7380  -4.7380  -4.4729  -4.4648
    -4.4441  -4.4439  -4.1346  -4.1345  -3.9788  -3.4721  -3.4671  -3.4664
    -3.4578  -3.4572  -3.3932  -3.2694  -3.2688  -3.2553  -3.2177  -2.9599
    -2.9574  -2.9571  -2.9438  -2.5087  -2.5084  -2.4447  -2.4357  -2.4354

     the Fermi energy is    -3.0902 ev

!    total energy              =    -140.94034064 Ry
     Harris-Foulkes estimate   =    -140.94034093 Ry
     estimated scf accuracy    <       0.00000039 Ry

     The total energy is the sum of the following terms:

     one-electron contribution =    -502.47136982 Ry
     hartree contribution      =     259.97909735 Ry
     xc contribution           =     -61.32822169 Ry
     ewald contribution        =     162.95956652 Ry
     smearing contrib. (-TS)   =      -0.07941300 Ry

     convergence has been achieved in   9 iterations

     Forces acting on atoms (cartesian axes, Ry/au):

     atom    1 type  1   force =     0.00001374   -0.00031834    0.00000000
     atom    2 type  1   force =     0.00121674    0.00069042    0.00000000
     atom    3 type  1   force =     0.00079740    0.00201611    0.00000000
     atom    4 type  1   force =     0.00002410   -0.00012834    0.00000000
     atom    5 type  1   force =     0.00215080   -0.00042112    0.00000000
     atom    6 type  1   force =     0.01273706    0.00737418    0.00000000
     atom    7 type  1   force =    -0.00030130    0.00017890    0.00000000
     atom    8 type  1   force =    -0.00017898    0.00010595    0.00000000
     atom    9 type  1   force =     0.00188188    0.00112577    0.00000000
     atom   10 type  1   force =    -0.00005550   -0.00230125    0.00000000
     atom   11 type  1   force =    -0.00084487    0.00203376    0.00000000
     atom   12 type  1   force =    -0.00203367    0.00100869    0.00000000
     atom   13 type  1   force =    -0.01274079    0.00736427    0.00000000
     atom   14 type  1   force =     0.00143549   -0.00163942    0.00000000
     atom   15 type  1   force =    -0.00001273   -0.01471715    0.00000000
     atom   16 type  1   force =     0.00002972   -0.00007047    0.00000000
     atom   17 type  1   force =     0.00003722   -0.00225765    0.00000000
     atom   18 type  1   force =    -0.00000736    0.00000168    0.00000000
     atom   19 type  1   force =     0.00001265   -0.00000803    0.00000000
     atom   20 type  1   force =    -0.00218806   -0.00029175    0.00000000
     atom   21 type  1   force =    -0.00189400    0.00126245    0.00000000
     atom   22 type  1   force =    -0.00135132   -0.00169284    0.00000000
     atom   23 type  1   force =     0.00011778    0.00003931    0.00000000
     atom   24 type  1   force =    -0.00201470    0.00116730    0.00000000
     atom   25 type  1   force =    -0.00109526    0.00063078    0.00000000
     atom   26 type  1   force =     0.00007829    0.00000736    0.00000000
     atom   27 type  1   force =     0.00196839    0.00108710    0.00000000
     atom   28 type  1   force =    -0.00003159   -0.00219978    0.00000000
     atom   29 type  1   force =     0.00195208    0.00119560    0.00000000
     atom   30 type  1   force =     0.00028563    0.00015619    0.00000000
     atom   31 type  1   force =     0.00001117   -0.00139969    0.00000000

     Total force =     0.027027     Total SCF correction =     0.000422


     Computing stress (Cartesian axis) and pressure

          total   stress  (Ry/bohr**3)                   (kbar)     P=   -0.62
  -0.00000632  -0.00000002   0.00000000         -0.93     -0.00      0.00
  -0.00000002  -0.00000636   0.00000000         -0.00     -0.94      0.00
   0.00000000   0.00000000   0.00000003          0.00      0.00      0.00


     number of scf cycles    =   4
     number of bfgs steps    =   3

     enthalpy old            =    -140.9384596023 Ry
     enthalpy new            =    -140.9403406382 Ry

     CASE: enthalpy_new < enthalpy_old

     new trust radius        =       0.0511161465 bohr
     new conv_thr            =       0.0000010000 Ry

     new unit-cell volume =  37039.74081 a.u.^3 (  5488.72323 Ang^3 )
     density =      0.28119 g/cm^3

CELL_PARAMETERS (alat= 33.68096681)
   0.998780627  -0.000000526   0.000000000
  -0.499390769   0.864967914   0.000000000
   0.000000000   0.000000000   1.122132950

ATOMIC_POSITIONS (angstrom)
Al       0.000099618   2.565117486   0.000000000
Al       2.228097034   1.286418370   0.000000000
Al      -2.222332100   6.415995395   0.000000000
Al       0.000075711   5.142608040   0.000000000
Al      -4.455606234  10.283804374   0.000000000
Al      -2.168844902   9.025553309   0.000000000
Al      -6.679240695  14.134066403   0.000000000
Al      -4.447239287  12.845441772   0.000000000
Al       4.458957777   2.574518823   0.000000000
Al       6.670718971   1.265730523   0.000000000
Al       2.222336157   6.415927021   0.000000000
Al       4.431387883   5.143909105   0.000000000
Al       2.168877033   9.025592496   0.000000000
Al      -2.233046299  14.133379158   0.000000000
Al       0.000002849  12.782168250   0.000000000
Al       8.900837479   2.575973841   0.000000000
Al      11.130794911   1.265891295   0.000000000
Al       6.681403519   6.420315208   0.000000000
Al       8.900852728   5.138886086   0.000000000
Al       4.455615435  10.284060913   0.000000000
Al       6.661756471   9.006974929   0.000000000
Al       2.233238403  14.133270850   0.000000000
Al       4.447218028  12.845317018   0.000000000
Al      13.342289771   2.574668047   0.000000000
Al      15.573699328   1.286336806   0.000000000
Al      11.120401554   6.420338838   0.000000000
Al      13.369909792   5.144151811   0.000000000
Al       8.900730484  10.267830835   0.000000000
Al      11.140038853   9.006798139   0.000000000
Al       6.679458108  14.134004350   0.000000000
Al       8.900762986  12.843870655   0.000000000



     Writing output data file 13al_planar_2x2_vcr.save/
     NEW-OLD atomic charge density approx. for the potential

     negative rho (up, down):  1.154E-06 0.000E+00
     extrapolated charge   92.90411, renormalised to   93.00000

     total cpu time spent up to now is     1547.9 secs

     Self-consistent Calculation

     iteration #  1     ecut=    80.00 Ry     beta= 0.40
     Davidson diagonalization with overlap
     ethr =  1.00E-06,  avg # of iterations =  6.0

     negative rho (up, down):  5.966E-07 0.000E+00

     total cpu time spent up to now is     1592.6 secs

     total energy              =    -140.94273149 Ry
     Harris-Foulkes estimate   =    -141.41811941 Ry
     estimated scf accuracy    <       0.00037314 Ry

     iteration #  2     ecut=    80.00 Ry     beta= 0.40
     Davidson diagonalization with overlap
     ethr =  4.01E-07,  avg # of iterations =  5.0

     negative rho (up, down):  5.356E-07 0.000E+00

     total cpu time spent up to now is     1629.3 secs

     total energy              =    -140.94272815 Ry
     Harris-Foulkes estimate   =    -140.94319615 Ry
     estimated scf accuracy    <       0.00342751 Ry

     iteration #  3     ecut=    80.00 Ry     beta= 0.40
     Davidson diagonalization with overlap
     ethr =  4.01E-07,  avg # of iterations =  4.0

     negative rho (up, down):  3.614E-07 0.000E+00

     total cpu time spent up to now is     1659.6 secs

     total energy              =    -140.94294549 Ry
     Harris-Foulkes estimate   =    -140.94297741 Ry
     estimated scf accuracy    <       0.00015256 Ry

     iteration #  4     ecut=    80.00 Ry     beta= 0.40
     Davidson diagonalization with overlap
     ethr =  1.64E-07,  avg # of iterations =  3.0

     negative rho (up, down):  2.538E-07 0.000E+00

     total cpu time spent up to now is     1683.3 secs

     total energy              =    -140.94294711 Ry
     Harris-Foulkes estimate   =    -140.94296099 Ry
     estimated scf accuracy    <       0.00005630 Ry

     iteration #  5     ecut=    80.00 Ry     beta= 0.40
     Davidson diagonalization with overlap
     ethr =  6.05E-08,  avg # of iterations =  4.0

     negative rho (up, down):  1.189E-07 0.000E+00

     total cpu time spent up to now is     1709.3 secs

     total energy              =    -140.94294243 Ry
     Harris-Foulkes estimate   =    -140.94296807 Ry
     estimated scf accuracy    <       0.00016427 Ry

     iteration #  6     ecut=    80.00 Ry     beta= 0.40
     Davidson diagonalization with overlap
     ethr =  6.05E-08,  avg # of iterations =  3.0

     negative rho (up, down):  4.425E-08 0.000E+00

     total cpu time spent up to now is     1737.8 secs

     total energy              =    -140.94295441 Ry
     Harris-Foulkes estimate   =    -140.94295795 Ry
     estimated scf accuracy    <       0.00001982 Ry

     iteration #  7     ecut=    80.00 Ry     beta= 0.40
     Davidson diagonalization with overlap
     ethr =  2.13E-08,  avg # of iterations =  4.0

     negative rho (up, down):  3.123E-08 0.000E+00

     total cpu time spent up to now is     1765.8 secs

     total energy              =    -140.94295598 Ry
     Harris-Foulkes estimate   =    -140.94295798 Ry
     estimated scf accuracy    <       0.00001327 Ry

     iteration #  8     ecut=    80.00 Ry     beta= 0.40
     Davidson diagonalization with overlap
     ethr =  1.43E-08,  avg # of iterations =  1.0

     negative rho (up, down):  1.072E-08 0.000E+00

     total cpu time spent up to now is     1788.7 secs

     total energy              =    -140.94295701 Ry
     Harris-Foulkes estimate   =    -140.94295726 Ry
     estimated scf accuracy    <       0.00000197 Ry

     iteration #  9     ecut=    80.00 Ry     beta= 0.40
     Davidson diagonalization with overlap
     ethr =  2.12E-09,  avg # of iterations =  5.0

     total cpu time spent up to now is     1821.1 secs

     total energy              =    -140.94295730 Ry
     Harris-Foulkes estimate   =    -140.94295753 Ry
     estimated scf accuracy    <       0.00000157 Ry

     iteration # 10     ecut=    80.00 Ry     beta= 0.40
     Davidson diagonalization with overlap
     ethr =  1.69E-09,  avg # of iterations =  3.0

     total cpu time spent up to now is     1848.3 secs

     total energy              =    -140.94295728 Ry
     Harris-Foulkes estimate   =    -140.94295753 Ry
     estimated scf accuracy    <       0.00000217 Ry

     iteration # 11     ecut=    80.00 Ry     beta= 0.40
     Davidson diagonalization with overlap
     ethr =  1.69E-09,  avg # of iterations =  1.0

     total cpu time spent up to now is     1871.3 secs

     End of self-consistent calculation

          k = 0.0000 0.0000 0.0000 (448403 PWs)   bands (ev):

    -9.9567  -9.4518  -9.4437  -9.4429  -9.4159  -9.4156  -9.1340  -8.4023
    -8.4011  -8.3969  -8.3675  -8.3672  -8.3137  -8.2345  -8.2343  -7.5798
    -6.9326  -6.9324  -6.8233  -6.4784  -6.4772  -6.4570  -6.3815  -6.3815
    -5.5048  -4.8243  -4.8176  -4.8173  -4.7374  -4.7374  -4.4687  -4.4615
    -4.4446  -4.4444  -4.1427  -4.1426  -3.9791  -3.4722  -3.4688  -3.4679
    -3.4544  -3.4540  -3.3868  -3.2894  -3.2648  -3.2643  -3.2153  -2.9598
    -2.9513  -2.9510  -2.9347  -2.5008  -2.5005  -2.4425  -2.4277  -2.4273

     the Fermi energy is    -3.0890 ev

!    total energy              =    -140.94295694 Ry
     Harris-Foulkes estimate   =    -140.94295741 Ry
     estimated scf accuracy    <       0.00000054 Ry

     The total energy is the sum of the following terms:

     one-electron contribution =    -502.79098541 Ry
     hartree contribution      =     260.13635605 Ry
     xc contribution           =     -61.32346959 Ry
     ewald contribution        =     163.11297866 Ry
     smearing contrib. (-TS)   =      -0.07783664 Ry

     convergence has been achieved in  11 iterations

     Forces acting on atoms (cartesian axes, Ry/au):

     atom    1 type  1   force =     0.00002546    0.00016308    0.00000000
     atom    2 type  1   force =     0.00164025    0.00093200    0.00000000
     atom    3 type  1   force =     0.00096586    0.00514423    0.00000000
     atom    4 type  1   force =     0.00001045   -0.00081332    0.00000000
     atom    5 type  1   force =     0.00494901   -0.00179414    0.00000000
     atom    6 type  1   force =     0.01282144    0.00741402    0.00000000
     atom    7 type  1   force =     0.00009709   -0.00005342    0.00000000
     atom    8 type  1   force =    -0.00074443    0.00041937    0.00000000
     atom    9 type  1   force =     0.00182836    0.00105513    0.00000000
     atom   10 type  1   force =     0.00076747   -0.00057411    0.00000000
     atom   11 type  1   force =    -0.00103006    0.00516784    0.00000000
     atom   12 type  1   force =    -0.00011496    0.00088223    0.00000000
     atom   13 type  1   force =    -0.01282513    0.00741245    0.00000000
     atom   14 type  1   force =     0.00403770   -0.00337549    0.00000000
     atom   15 type  1   force =     0.00000113   -0.01480679    0.00000000
     atom   16 type  1   force =     0.00001316   -0.00124648    0.00000000
     atom   17 type  1   force =    -0.00078766   -0.00056505    0.00000000
     atom   18 type  1   force =    -0.00103968    0.00059563    0.00000000
     atom   19 type  1   force =     0.00002999   -0.00001482    0.00000000
     atom   20 type  1   force =    -0.00498050   -0.00169378    0.00000000
     atom   21 type  1   force =    -0.00082701   -0.00031857    0.00000000
     atom   22 type  1   force =    -0.00398119   -0.00340601    0.00000000
     atom   23 type  1   force =     0.00070952    0.00038572    0.00000000
     atom   24 type  1   force =    -0.00191197    0.00110019    0.00000000
     atom   25 type  1   force =    -0.00156346    0.00089379    0.00000000
     atom   26 type  1   force =     0.00108531    0.00061056    0.00000000
     atom   27 type  1   force =     0.00008761    0.00096731    0.00000000
     atom   28 type  1   force =    -0.00000243   -0.00212010    0.00000000
     atom   29 type  1   force =     0.00085731   -0.00037672    0.00000000
     atom   30 type  1   force =    -0.00013719   -0.00008856    0.00000000
     atom   31 type  1   force =     0.00001855   -0.00189614    0.00000000

     Total force =     0.029323     Total SCF correction =     0.000616


     Computing stress (Cartesian axis) and pressure

          total   stress  (Ry/bohr**3)                   (kbar)     P=   -0.66
  -0.00000666  -0.00000002   0.00000000         -0.98     -0.00      0.00
  -0.00000002  -0.00000670   0.00000000         -0.00     -0.99      0.00
   0.00000000   0.00000000   0.00000000          0.00      0.00      0.00


     number of scf cycles    =   5
     number of bfgs steps    =   4

     enthalpy old            =    -140.9403406382 Ry
     enthalpy new            =    -140.9429569375 Ry

     CASE: enthalpy_new < enthalpy_old

     new trust radius        =       0.0766347240 bohr
     new conv_thr            =       0.0000010000 Ry

     new unit-cell volume =  36982.05566 a.u.^3 (  5480.17518 Ang^3 )
     density =      0.28163 g/cm^3

CELL_PARAMETERS (alat= 33.68096681)
   0.998003189  -0.000000784   0.000000000
  -0.499002274   0.864293710   0.000000000
   0.000000000   0.000000000   1.122132950

ATOMIC_POSITIONS (angstrom)
Al       0.000162372   2.560979610   0.000000000
Al       2.228649639   1.286748383   0.000000000
Al      -2.218626517   6.409727855   0.000000000
Al       0.000087403   5.140135649   0.000000000
Al      -4.452280881  10.278044665   0.000000000
Al      -2.132098366   9.038766601   0.000000000
Al      -6.675882512  14.124126654   0.000000000
Al      -4.442511769  12.834716724   0.000000000
Al       4.460758725   2.575574537   0.000000000
Al       6.663419210   1.254867058   0.000000000
Al       2.218599957   6.409623464   0.000000000
Al       4.418260855   5.142900360   0.000000000
Al       2.132097691   9.038823543   0.000000000
Al      -2.233341592  14.121329801   0.000000000
Al      -0.000022648  12.731718962   0.000000000
Al       8.893933693   2.576669065   0.000000000
Al      11.124198888   1.255072355   0.000000000
Al       6.678630712   6.413927849   0.000000000
Al       8.893969051   5.134859651   0.000000000
Al       4.452268021  10.278405052   0.000000000
Al       6.649125307   9.006814819   0.000000000
Al       2.233578355  14.121176259   0.000000000
Al       4.442422868  12.834525144   0.000000000
Al      13.326500576   2.575800509   0.000000000
Al      15.559381557   1.286607621   0.000000000
Al      11.109420504   6.413954158   0.000000000
Al      13.369033357   5.143250277   0.000000000
Al       8.893789039  10.253715776   0.000000000
Al      11.138860615   9.006536457   0.000000000
Al       6.676154202  14.123992708   0.000000000
Al       8.893799295  12.831201754   0.000000000



     Writing output data file 13al_planar_2x2_vcr.save/
     NEW-OLD atomic charge density approx. for the potential

     negative rho (up, down):  1.735E-06 0.000E+00
     extrapolated charge   92.85506, renormalised to   93.00000

     total cpu time spent up to now is     1947.7 secs

     Self-consistent Calculation

     iteration #  1     ecut=    80.00 Ry     beta= 0.40
     Davidson diagonalization with overlap
     ethr =  1.00E-06,  avg # of iterations =  8.0

     negative rho (up, down):  9.097E-07 0.000E+00

     total cpu time spent up to now is     1997.6 secs

     total energy              =    -140.94621216 Ry
     Harris-Foulkes estimate   =    -141.66553787 Ry
     estimated scf accuracy    <       0.00071114 Ry

     iteration #  2     ecut=    80.00 Ry     beta= 0.40
     Davidson diagonalization with overlap
     ethr =  7.65E-07,  avg # of iterations =  5.0

     negative rho (up, down):  8.110E-07 0.000E+00

     total cpu time spent up to now is     2030.8 secs

     total energy              =    -140.94631120 Ry
     Harris-Foulkes estimate   =    -140.94707832 Ry
     estimated scf accuracy    <       0.00530830 Ry

     iteration #  3     ecut=    80.00 Ry     beta= 0.40
     Davidson diagonalization with overlap
     ethr =  7.65E-07,  avg # of iterations =  7.0

     negative rho (up, down):  5.545E-07 0.000E+00

     total cpu time spent up to now is     2061.5 secs

     total energy              =    -140.94665512 Ry
     Harris-Foulkes estimate   =    -140.94671359 Ry
     estimated scf accuracy    <       0.00027353 Ry

     iteration #  4     ecut=    80.00 Ry     beta= 0.40
     Davidson diagonalization with overlap
     ethr =  2.94E-07,  avg # of iterations =  1.0

     negative rho (up, down):  2.958E-07 0.000E+00

     total cpu time spent up to now is     2084.1 secs

     total energy              =    -140.94666028 Ry
     Harris-Foulkes estimate   =    -140.94668074 Ry
     estimated scf accuracy    <       0.00010603 Ry

     iteration #  5     ecut=    80.00 Ry     beta= 0.40
     Davidson diagonalization with overlap
     ethr =  1.14E-07,  avg # of iterations =  4.0

     negative rho (up, down):  1.521E-07 0.000E+00

     total cpu time spent up to now is     2109.5 secs

     total energy              =    -140.94664683 Ry
     Harris-Foulkes estimate   =    -140.94668896 Ry
     estimated scf accuracy    <       0.00023844 Ry

     iteration #  6     ecut=    80.00 Ry     beta= 0.40
     Davidson diagonalization with overlap
     ethr =  1.14E-07,  avg # of iterations =  3.0

     negative rho (up, down):  5.220E-08 0.000E+00

     total cpu time spent up to now is     2133.4 secs

     total energy              =    -140.94666757 Ry
     Harris-Foulkes estimate   =    -140.94667421 Ry
     estimated scf accuracy    <       0.00004096 Ry

     iteration #  7     ecut=    80.00 Ry     beta= 0.40
     Davidson diagonalization with overlap
     ethr =  4.40E-08,  avg # of iterations =  4.0

     negative rho (up, down):  3.904E-08 0.000E+00

     total cpu time spent up to now is     2158.2 secs

     total energy              =    -140.94667072 Ry
     Harris-Foulkes estimate   =    -140.94667326 Ry
     estimated scf accuracy    <       0.00001615 Ry

     iteration #  8     ecut=    80.00 Ry     beta= 0.40
     Davidson diagonalization with overlap
     ethr =  1.74E-08,  avg # of iterations =  3.0

     negative rho (up, down):  1.038E-08 0.000E+00

     total cpu time spent up to now is     2184.4 secs

     total energy              =    -140.94667209 Ry
     Harris-Foulkes estimate   =    -140.94667267 Ry
     estimated scf accuracy    <       0.00000247 Ry

     iteration #  9     ecut=    80.00 Ry     beta= 0.40
     Davidson diagonalization with overlap
     ethr =  2.66E-09,  avg # of iterations =  5.0

     total cpu time spent up to now is     2219.0 secs

     total energy              =    -140.94667231 Ry
     Harris-Foulkes estimate   =    -140.94667273 Ry
     estimated scf accuracy    <       0.00000417 Ry

     iteration # 10     ecut=    80.00 Ry     beta= 0.40
     Davidson diagonalization with overlap
     ethr =  2.66E-09,  avg # of iterations =  2.0

     total cpu time spent up to now is     2244.1 secs

     total energy              =    -140.94667213 Ry
     Harris-Foulkes estimate   =    -140.94667238 Ry
     estimated scf accuracy    <       0.00000242 Ry

     iteration # 11     ecut=    80.00 Ry     beta= 0.40
     Davidson diagonalization with overlap
     ethr =  2.60E-09,  avg # of iterations =  1.0

     total cpu time spent up to now is     2268.1 secs

     total energy              =    -140.94667201 Ry
     Harris-Foulkes estimate   =    -140.94667224 Ry
     estimated scf accuracy    <       0.00000135 Ry

     iteration # 12     ecut=    80.00 Ry     beta= 0.40
     Davidson diagonalization with overlap
     ethr =  1.46E-09,  avg # of iterations =  4.0

     total cpu time spent up to now is     2292.8 secs

     End of self-consistent calculation

          k = 0.0000 0.0000 0.0000 (448403 PWs)   bands (ev):

    -9.9594  -9.4538  -9.4507  -9.4500  -9.4103  -9.4099  -9.1294  -8.4056
    -8.4014  -8.4006  -8.3602  -8.3597  -8.3182  -8.2184  -8.2182  -7.5781
    -6.9337  -6.9333  -6.8246  -6.4776  -6.4762  -6.4423  -6.3858  -6.3857
    -5.5296  -4.8172  -4.8051  -4.8047  -4.7354  -4.7354  -4.4638  -4.4575
    -4.4455  -4.4454  -4.1554  -4.1552  -3.9802  -3.4725  -3.4723  -3.4715
    -3.4493  -3.4489  -3.3776  -3.3417  -3.2588  -3.2584  -3.2130  -2.9658
    -2.9427  -2.9423  -2.9149  -2.4906  -2.4902  -2.4404  -2.4184  -2.4175

     the Fermi energy is    -3.0877 ev

!    total energy              =    -140.94667197 Ry
     Harris-Foulkes estimate   =    -140.94667209 Ry
     estimated scf accuracy    <       0.00000015 Ry

     The total energy is the sum of the following terms:

     one-electron contribution =    -503.28217960 Ry
     hartree contribution      =     260.37884504 Ry
     xc contribution           =     -61.31765269 Ry
     ewald contribution        =     163.34955710 Ry
     smearing contrib. (-TS)   =      -0.07524181 Ry

     convergence has been achieved in  12 iterations

     Forces acting on atoms (cartesian axes, Ry/au):

     atom    1 type  1   force =    -0.00002139    0.00083281    0.00000000
     atom    2 type  1   force =     0.00223146    0.00121110    0.00000000
     atom    3 type  1   force =     0.00124072    0.00938765    0.00000000
     atom    4 type  1   force =     0.00002452   -0.00174491    0.00000000
     atom    5 type  1   force =     0.00884780   -0.00362216    0.00000000
     atom    6 type  1   force =     0.01305023    0.00756783    0.00000000
     atom    7 type  1   force =     0.00059631   -0.00034727    0.00000000
     atom    8 type  1   force =    -0.00147351    0.00083681    0.00000000
     atom    9 type  1   force =     0.00176667    0.00101604    0.00000000
     atom   10 type  1   force =     0.00176441    0.00177264    0.00000000
     atom   11 type  1   force =    -0.00135473    0.00943231    0.00000000
     atom   12 type  1   force =     0.00244435    0.00061262    0.00000000
     atom   13 type  1   force =    -0.01307477    0.00755813    0.00000000
     atom   14 type  1   force =     0.00757071   -0.00582535    0.00000000
     atom   15 type  1   force =    -0.00001831   -0.01508027    0.00000000
     atom   16 type  1   force =     0.00001226   -0.00279945    0.00000000
     atom   17 type  1   force =    -0.00182022    0.00171794    0.00000000
     atom   18 type  1   force =    -0.00243464    0.00139537    0.00000000
     atom   19 type  1   force =     0.00003032   -0.00000950    0.00000000
     atom   20 type  1   force =    -0.00885057   -0.00354537    0.00000000
     atom   21 type  1   force =     0.00068639   -0.00240696    0.00000000
     atom   22 type  1   force =    -0.00752327   -0.00578247    0.00000000
     atom   23 type  1   force =     0.00151622    0.00083548    0.00000000
     atom   24 type  1   force =    -0.00177031    0.00102381    0.00000000
     atom   25 type  1   force =    -0.00215322    0.00122790    0.00000000
     atom   26 type  1   force =     0.00242818    0.00138281    0.00000000
     atom   27 type  1   force =    -0.00239250    0.00072412    0.00000000
     atom   28 type  1   force =     0.00000532   -0.00203140    0.00000000
     atom   29 type  1   force =    -0.00067324   -0.00241655    0.00000000
     atom   30 type  1   force =    -0.00073399   -0.00037204    0.00000000
     atom   31 type  1   force =     0.00007881   -0.00255169    0.00000000

     Total force =     0.036478     Total SCF correction =     0.000309


     Computing stress (Cartesian axis) and pressure

          total   stress  (Ry/bohr**3)                   (kbar)     P=   -0.70
  -0.00000713  -0.00000005   0.00000000         -1.05     -0.01      0.00
  -0.00000005  -0.00000720   0.00000000         -0.01     -1.06      0.00
   0.00000000   0.00000000   0.00000001          0.00      0.00      0.00


     number of scf cycles    =   6
     number of bfgs steps    =   5

     enthalpy old            =    -140.9429569375 Ry
     enthalpy new            =    -140.9466719672 Ry

     CASE: enthalpy_new < enthalpy_old

     new trust radius        =       0.1148625995 bohr
     new conv_thr            =       0.0000010000 Ry

     new unit-cell volume =  36895.31237 a.u.^3 (  5467.32115 Ang^3 )
     density =      0.28229 g/cm^3

CELL_PARAMETERS (alat= 33.68096681)
   0.996833310  -0.000001719   0.000000000
  -0.498418144   0.863278885   0.000000000
   0.000000000   0.000000000   1.122132950

ATOMIC_POSITIONS (angstrom)
Al       0.000224723   2.554997734   0.000000000
Al       2.229652459   1.287306339   0.000000000
Al      -2.212963376   6.401791628   0.000000000
Al       0.000110243   5.136097563   0.000000000
Al      -4.445890204  10.268739682   0.000000000
Al      -2.077093261   9.058493019   0.000000000
Al      -6.670665770  14.109062198   0.000000000
Al      -4.435626448  12.818701223   0.000000000
Al       4.463384321   2.577113386   0.000000000
Al       6.652759245   1.239462047   0.000000000
Al       2.212861129   6.401636796   0.000000000
Al       4.399502139   5.141211065   0.000000000
Al       2.077018344   9.058569768   0.000000000
Al      -2.232550887  14.102304770   0.000000000
Al      -0.000082843  12.656119282   0.000000000
Al       8.883543766   2.577170948   0.000000000
Al      11.113925958   1.239696333   0.000000000
Al       6.673958015   6.404593640   0.000000000
Al       8.883604860   5.128797596   0.000000000
Al       4.445854381  10.269229615   0.000000000
Al       6.630756620   9.005773497   0.000000000
Al       2.232828665  14.102127575   0.000000000
Al       4.435471477  12.818425445   0.000000000
Al      13.302876173   2.577423149   0.000000000
Al      15.537659398   1.287105883   0.000000000
Al      11.093357884   6.404602328   0.000000000
Al      13.366758331   5.141728595   0.000000000
Al       8.883340763  10.232569958   0.000000000
Al      11.136431491   9.005373652   0.000000000
Al       6.670952765  14.108821134   0.000000000
Al       8.883346152  12.811942583   0.000000000



     Writing output data file 13al_planar_2x2_vcr.save/
     NEW-OLD atomic charge density approx. for the potential

     negative rho (up, down):  2.659E-06 0.000E+00
     extrapolated charge   92.78153, renormalised to   93.00000

     total cpu time spent up to now is     2370.4 secs

     Self-consistent Calculation

     iteration #  1     ecut=    80.00 Ry     beta= 0.40
     Davidson diagonalization with overlap
     c_bands:  1 eigenvalues not converged
     ethr =  1.00E-06,  avg # of iterations = 20.0

     negative rho (up, down):  1.551E-06 0.000E+00

     total cpu time spent up to now is     2424.6 secs

     total energy              =    -140.95058306 Ry
     Harris-Foulkes estimate   =    -142.03704678 Ry
     estimated scf accuracy    <       0.00209285 Ry

     iteration #  2     ecut=    80.00 Ry     beta= 0.40
     Davidson diagonalization with overlap
     ethr =  2.25E-06,  avg # of iterations =  7.0

     negative rho (up, down):  1.399E-06 0.000E+00

     total cpu time spent up to now is     2461.5 secs

     total energy              =    -140.95029767 Ry
     Harris-Foulkes estimate   =    -140.95392431 Ry
     estimated scf accuracy    <       0.02791202 Ry

     iteration #  3     ecut=    80.00 Ry     beta= 0.40
     Davidson diagonalization with overlap
     ethr =  2.25E-06,  avg # of iterations =  6.0

     negative rho (up, down):  9.863E-07 0.000E+00

     total cpu time spent up to now is     2493.4 secs

     total energy              =    -140.95191075 Ry
     Harris-Foulkes estimate   =    -140.95203344 Ry
     estimated scf accuracy    <       0.00056071 Ry

     iteration #  4     ecut=    80.00 Ry     beta= 0.40
     Davidson diagonalization with overlap
     ethr =  6.03E-07,  avg # of iterations =  3.0

     negative rho (up, down):  6.176E-07 0.000E+00

     total cpu time spent up to now is     2517.1 secs

     total energy              =    -140.95191193 Ry
     Harris-Foulkes estimate   =    -140.95196262 Ry
     estimated scf accuracy    <       0.00029813 Ry

     iteration #  5     ecut=    80.00 Ry     beta= 0.40
     Davidson diagonalization with overlap
     ethr =  3.21E-07,  avg # of iterations =  4.0

     negative rho (up, down):  3.717E-07 0.000E+00

     total cpu time spent up to now is     2542.2 secs

     total energy              =    -140.95187893 Ry
     Harris-Foulkes estimate   =    -140.95196875 Ry
     estimated scf accuracy    <       0.00049795 Ry

     iteration #  6     ecut=    80.00 Ry     beta= 0.40
     Davidson diagonalization with overlap
     ethr =  3.21E-07,  avg # of iterations =  4.0

     negative rho (up, down):  7.620E-08 0.000E+00

     total cpu time spent up to now is     2567.9 secs

     total energy              =    -140.95192138 Ry
     Harris-Foulkes estimate   =    -140.95194299 Ry
     estimated scf accuracy    <       0.00013534 Ry

     iteration #  7     ecut=    80.00 Ry     beta= 0.40
     Davidson diagonalization with overlap
     ethr =  1.46E-07,  avg # of iterations =  2.0

     negative rho (up, down):  5.079E-08 0.000E+00

     total cpu time spent up to now is     2592.7 secs

     total energy              =    -140.95193416 Ry
     Harris-Foulkes estimate   =    -140.95193729 Ry
     estimated scf accuracy    <       0.00001480 Ry

     iteration #  8     ecut=    80.00 Ry     beta= 0.40
     Davidson diagonalization with overlap
     ethr =  1.59E-08,  avg # of iterations =  8.0

     negative rho (up, down):  2.965E-08 0.000E+00

     total cpu time spent up to now is     2628.6 secs

     total energy              =    -140.95193449 Ry
     Harris-Foulkes estimate   =    -140.95193790 Ry
     estimated scf accuracy    <       0.00002477 Ry

     iteration #  9     ecut=    80.00 Ry     beta= 0.40
     Davidson diagonalization with overlap
     ethr =  1.59E-08,  avg # of iterations =  2.0

     negative rho (up, down):  1.004E-08 0.000E+00

     total cpu time spent up to now is     2653.3 secs

     total energy              =    -140.95193427 Ry
     Harris-Foulkes estimate   =    -140.95193560 Ry
     estimated scf accuracy    <       0.00000684 Ry

     iteration # 10     ecut=    80.00 Ry     beta= 0.40
     Davidson diagonalization with overlap
     ethr =  7.35E-09,  avg # of iterations =  4.0

     total cpu time spent up to now is     2678.9 secs

     total energy              =    -140.95193419 Ry
     Harris-Foulkes estimate   =    -140.95193516 Ry
     estimated scf accuracy    <       0.00000552 Ry

     iteration # 11     ecut=    80.00 Ry     beta= 0.40
     Davidson diagonalization with overlap
     ethr =  5.93E-09,  avg # of iterations =  3.0

     total cpu time spent up to now is     2702.8 secs

     total energy              =    -140.95193430 Ry
     Harris-Foulkes estimate   =    -140.95193467 Ry
     estimated scf accuracy    <       0.00000164 Ry

     iteration # 12     ecut=    80.00 Ry     beta= 0.40
     Davidson diagonalization with overlap
     ethr =  1.76E-09,  avg # of iterations =  4.0

     total cpu time spent up to now is     2729.3 secs

     total energy              =    -140.95193403 Ry
     Harris-Foulkes estimate   =    -140.95193428 Ry
     estimated scf accuracy    <       0.00000144 Ry

     iteration # 13     ecut=    80.00 Ry     beta= 0.40
     Davidson diagonalization with overlap
     ethr =  1.54E-09,  avg # of iterations =  3.0

     total cpu time spent up to now is     2754.5 secs

     End of self-consistent calculation

          k = 0.0000 0.0000 0.0000 (448403 PWs)   bands (ev):

    -9.9638  -9.4612  -9.4600  -9.4561  -9.4037  -9.4035  -9.1246  -8.4179
    -8.4021  -8.4011  -8.3525  -8.3499  -8.3253  -8.1916  -8.1914  -7.5789
    -6.9357  -6.9352  -6.8285  -6.4759  -6.4748  -6.4224  -6.3901  -6.3894
    -5.5674  -4.8077  -4.7905  -4.7903  -4.7289  -4.7286  -4.4563  -4.4510
    -4.4475  -4.4473  -4.1750  -4.1745  -3.9819  -3.4778  -3.4765  -3.4722
    -3.4426  -3.4424  -3.4226  -3.3624  -3.2509  -3.2507  -3.2112  -2.9749
    -2.9295  -2.9289  -2.8834  -2.4763  -2.4761  -2.4384  -2.4378  -2.4044

     the Fermi energy is    -3.0858 ev

!    total energy              =    -140.95193338 Ry
     Harris-Foulkes estimate   =    -140.95193406 Ry
     estimated scf accuracy    <       0.00000076 Ry

     The total energy is the sum of the following terms:

     one-electron contribution =    -504.03896556 Ry
     hartree contribution      =     260.75012639 Ry
     xc contribution           =     -61.31002327 Ry
     ewald contribution        =     163.71827959 Ry
     smearing contrib. (-TS)   =      -0.07135051 Ry

     convergence has been achieved in  13 iterations

     Forces acting on atoms (cartesian axes, Ry/au):

     atom    1 type  1   force =     0.00012013    0.00177098    0.00000000
     atom    2 type  1   force =     0.00256845    0.00168360    0.00000000
     atom    3 type  1   force =     0.00168083    0.01532442    0.00000000
     atom    4 type  1   force =    -0.00000973   -0.00328910    0.00000000
     atom    5 type  1   force =     0.01429393   -0.00594312    0.00000000
     atom    6 type  1   force =     0.01337790    0.00769362    0.00000000
     atom    7 type  1   force =     0.00123510   -0.00077919    0.00000000
     atom    8 type  1   force =    -0.00243199    0.00136931    0.00000000
     atom    9 type  1   force =     0.00196986    0.00109203    0.00000000
     atom   10 type  1   force =     0.00309567    0.00517621    0.00000000
     atom   11 type  1   force =    -0.00174517    0.01530259    0.00000000
     atom   12 type  1   force =     0.00602613    0.00022297    0.00000000
     atom   13 type  1   force =    -0.01346645    0.00775486    0.00000000
     atom   14 type  1   force =     0.01234702   -0.00937617    0.00000000
     atom   15 type  1   force =     0.00004153   -0.01539483    0.00000000
     atom   16 type  1   force =    -0.00011329   -0.00480802    0.00000000
     atom   17 type  1   force =    -0.00314182    0.00486534    0.00000000
     atom   18 type  1   force =    -0.00429961    0.00247211    0.00000000
     atom   19 type  1   force =     0.00002059   -0.00001768    0.00000000
     atom   20 type  1   force =    -0.01412568   -0.00611425    0.00000000
     atom   21 type  1   force =     0.00287333   -0.00530358    0.00000000
     atom   22 type  1   force =    -0.01247897   -0.00918821    0.00000000
     atom   23 type  1   force =     0.00277131    0.00160067    0.00000000
     atom   24 type  1   force =    -0.00160379    0.00093242    0.00000000
     atom   25 type  1   force =    -0.00289770    0.00172195    0.00000000
     atom   26 type  1   force =     0.00409969    0.00252093    0.00000000
     atom   27 type  1   force =    -0.00574076    0.00030601    0.00000000
     atom   28 type  1   force =     0.00005844   -0.00234384    0.00000000
     atom   29 type  1   force =    -0.00301954   -0.00527025    0.00000000
     atom   30 type  1   force =    -0.00145133   -0.00095226    0.00000000
     atom   31 type  1   force =    -0.00005407   -0.00302952    0.00000000

     Total force =     0.050132     Total SCF correction =     0.000756


     Computing stress (Cartesian axis) and pressure

          total   stress  (Ry/bohr**3)                   (kbar)     P=   -0.77
  -0.00000784  -0.00000001   0.00000000         -1.15     -0.00      0.00
  -0.00000001  -0.00000783   0.00000000         -0.00     -1.15      0.00
   0.00000000   0.00000000  -0.00000001          0.00      0.00     -0.00


     number of scf cycles    =   7
     number of bfgs steps    =   6

[...]
     atom   29 type  1   force =     0.00000664    0.00000721    0.00000000
     atom   30 type  1   force =    -0.00000008   -0.00000355    0.00000000
     atom   31 type  1   force =    -0.00000120   -0.00000285    0.00000000

     Total force =     0.000034     Total SCF correction =     0.000073
     SCF correction compared to forces is large: reduce conv_thr to get better values


     Computing stress (Cartesian axis) and pressure

          total   stress  (Ry/bohr**3)                   (kbar)     P=   -0.00
   0.00000000  -0.00000000   0.00000000          0.00     -0.00      0.00
  -0.00000000   0.00000000   0.00000000         -0.00      0.00      0.00
   0.00000000   0.00000000  -0.00000001          0.00      0.00     -0.00


     bfgs converged in 180 scf cycles and 176 bfgs steps
     (criteria: energy <  1.0E-05 Ry, force <  1.0E-04Ry/Bohr, cell <  5.0E-05kbar)

     End of BFGS Geometry Optimization

     Final enthalpy =    -142.2701674968 Ry
Begin final coordinates
     new unit-cell volume =  26092.78732 a.u.^3 (  3866.55211 Ang^3 )
     density =      0.39916 g/cm^3

CELL_PARAMETERS (alat= 33.68096681)
   0.838293523  -0.000160644   0.000000000
  -0.419007148   0.726063210   0.000000000
   0.000000000   0.000000000   1.122132950

ATOMIC_POSITIONS (angstrom)
Al      -0.240756765   0.974057332   0.000000000
Al       2.410125371   1.390930979   0.000000000
Al      -0.962745798   5.565595833   0.000000000
Al       0.723697615   3.478257226   0.000000000
Al      -4.335817311   9.740151233   0.000000000
Al      -2.649297195   7.652826763   0.000000000
Al      -6.022322293  11.827477321   0.000000000
Al      -3.371419173  12.244372080   0.000000000
Al       6.025456961   4.312021729   0.000000000
Al       5.061060784   1.807788761   0.000000000
Al       1.688136443   5.982530947   0.000000000
Al       3.374561028   3.895133068   0.000000000
Al       0.001619276   8.069812053   0.000000000
Al      -0.720504416  12.661287824   0.000000000
Al      -1.684917411  10.157036588   0.000000000
Al       7.711965003   2.224734365   0.000000000
Al       9.398457544   0.137408462   0.000000000
Al       4.339000782   6.399369895   0.000000000
Al       8.676421162   4.728919077   0.000000000
Al       2.652526774   8.486757565   0.000000000
Al       5.303452952   8.903551347   0.000000000
Al       0.965996750  10.574007793   0.000000000
Al       3.616980232  10.990895274   0.000000000
Al      10.362892735   2.641610031   0.000000000
Al      12.049395989   0.554310189   0.000000000
Al      11.327373595   5.145791611   0.000000000
Al      13.013815954   3.058496818   0.000000000
Al       6.989920207   6.816206388   0.000000000
Al       9.640817680   7.233078393   0.000000000
Al       6.267869155  11.407771412   0.000000000
Al       7.954353955   9.320436114   0.000000000
End final coordinates



     Writing output data file 13al_planar_2x2_vcr.save/

     A final scf calculation at the relaxed structure.
     The G-vectors are recalculated for the final unit cell
     Results may differ from those at the preceding step.
 
     Parallelization info
     --------------------
     sticks:   dense  smooth     PW     G-vecs:    dense   smooth      PW
     Min        2198    2198    550               315304   315304   39396
     Max        2199    2199    551               315313   315313   39401
     Sum       17587   17587   4405              2522465  2522465  315191
 


     bravais-lattice index     =            4
     lattice parameter (alat)  =      33.6810  a.u.
     unit-cell volume          =   26092.7873 (a.u.)^3
     number of atoms/cell      =           31
     number of atomic types    =            1
     number of electrons       =        93.00
     number of Kohn-Sham states=           56
     kinetic-energy cutoff     =      80.0000  Ry
     charge density cutoff     =     320.0000  Ry
     convergence threshold     =      1.0E-08
     mixing beta               =       0.4000
     number of iterations used =            8  plain     mixing
     Exchange-correlation      = PBE ( 1  4  3  4 0 0)

     celldm(1)=  33.680967  celldm(2)=   0.000000  celldm(3)=   1.122133
     celldm(4)=   0.000000  celldm(5)=   0.000000  celldm(6)=   0.000000

     crystal axes: (cart. coord. in units of alat)
               a(1) = (   0.838294  -0.000161   0.000000 )  
               a(2) = (  -0.419007   0.726063   0.000000 )  
               a(3) = (   0.000000   0.000000   1.122133 )  

     reciprocal axes: (cart. coord. in units 2 pi/alat)
               b(1) = (  1.193032  0.688492  0.000000 )  
               b(2) = (  0.000264  1.377443  0.000000 )  
               b(3) = (  0.000000  0.000000  0.891160 )  


     PseudoPot. # 1 for Al read from file:
     ./Al.upf
     MD5 check sum: 4974d48a734c9d7d1eb6780a1419d19d
     Pseudo is Norm-conserving + core correction, Zval =  3.0
     Generated using ONCVPSP code by D. R. Hamann
     Using radial grid of 1876 points,  6 beta functions with: 
                l(1) =   0
                l(2) =   0
                l(3) =   1
                l(4) =   1
                l(5) =   2
                l(6) =   2

     atomic species   valence    mass     pseudopotential
        Al             3.00    29.98200     Al( 1.00)

      2 Sym. Ops. (no inversion) found



   Cartesian axes

     site n.     atom                  positions (alat units)
         1           Al  tau(   1) = (  -0.0135081   0.0546511   0.0000000  )
         2           Al  tau(   2) = (   0.1352241   0.0780405   0.0000000  )
         3           Al  tau(   3) = (  -0.0540164   0.3122669   0.0000000  )
         4           Al  tau(   4) = (   0.0406042   0.1951534   0.0000000  )
         5           Al  tau(   5) = (  -0.2432682   0.5464872   0.0000000  )
         6           Al  tau(   6) = (  -0.1486432   0.4293745   0.0000000  )
         7           Al  tau(   7) = (  -0.3378923   0.6636001   0.0000000  )
         8           Al  tau(   8) = (  -0.1891590   0.6869907   0.0000000  )
         9           Al  tau(   9) = (   0.3380682   0.2419331   0.0000000  )
        10           Al  tau(  10) = (   0.2839592   0.1014290   0.0000000  )
        11           Al  tau(  11) = (   0.0947157   0.3356598   0.0000000  )
        12           Al  tau(  12) = (   0.1893353   0.2185429   0.0000000  )
        13           Al  tau(  13) = (   0.0000909   0.4527701   0.0000000  )
        14           Al  tau(  14) = (  -0.0404251   0.7103824   0.0000000  )
        15           Al  tau(  15) = (  -0.0945351   0.5698773   0.0000000  )
        16           Al  tau(  16) = (   0.4326925   0.1248224   0.0000000  )
        17           Al  tau(  17) = (   0.5273159   0.0077095   0.0000000  )
        18           Al  tau(  18) = (   0.2434468   0.3590472   0.0000000  )
        19           Al  tau(  19) = (   0.4868049   0.2653238   0.0000000  )
        20           Al  tau(  20) = (   0.1488244   0.4761635   0.0000000  )
        21           Al  tau(  21) = (   0.2975590   0.4995484   0.0000000  )
        22           Al  tau(  22) = (   0.0541988   0.5932721   0.0000000  )
        23           Al  tau(  23) = (   0.2029366   0.6166623   0.0000000  )
        24           Al  tau(  24) = (   0.5814272   0.1482119   0.0000000  )
        25           Al  tau(  25) = (   0.6760512   0.0311005   0.0000000  )
        26           Al  tau(  26) = (   0.6355410   0.2887131   0.0000000  )
        27           Al  tau(  27) = (   0.7301616   0.1716020   0.0000000  )
        28           Al  tau(  28) = (   0.3921810   0.3824345   0.0000000  )
        29           Al  tau(  29) = (   0.5409140   0.4058238   0.0000000  )
        30           Al  tau(  30) = (   0.3516691   0.6400518   0.0000000  )
        31           Al  tau(  31) = (   0.4462921   0.5229384   0.0000000  )

     number of k points=     1  Methfessel-Paxton smearing, width (Ry)=  0.0500
                       cart. coord. in units 2pi/alat
        k(    1) = (   0.0000000   0.0000000   0.0000000), wk =   2.0000000

     Dense  grid:  2522465 G-vectors     FFT dimensions: ( 162, 162, 216)

     Estimated max dynamical RAM per process >     839.96 MB

     Estimated total dynamical RAM >       6.56 GB

     Initial potential from superposition of free atoms

     starting charge   92.92414, renormalised to   93.00000

     negative rho (up, down):  7.270E-05 0.000E+00
     Starting wfcs are  124 randomized atomic wfcs

     total cpu time spent up to now is    71193.3 secs

     Self-consistent Calculation

     iteration #  1     ecut=    80.00 Ry     beta= 0.40
     Davidson diagonalization with overlap
     ethr =  1.00E-06,  avg # of iterations =  9.0

     negative rho (up, down):  1.172E-05 0.000E+00

     total cpu time spent up to now is    71247.4 secs

     total energy              =    -142.21847921 Ry
     Harris-Foulkes estimate   =    -142.58378661 Ry
     estimated scf accuracy    <       1.01219384 Ry

     iteration #  2     ecut=    80.00 Ry     beta= 0.40
     Davidson diagonalization with overlap
     ethr =  1.09E-03,  avg # of iterations =  1.0

     negative rho (up, down):  3.415E-06 0.000E+00

     total cpu time spent up to now is    71265.8 secs

     total energy              =    -142.25980778 Ry
     Harris-Foulkes estimate   =    -142.29576851 Ry
     estimated scf accuracy    <       0.10990557 Ry

     iteration #  3     ecut=    80.00 Ry     beta= 0.40
     Davidson diagonalization with overlap
     ethr =  1.18E-04,  avg # of iterations =  1.0

     negative rho (up, down):  2.293E-07 0.000E+00

     total cpu time spent up to now is    71284.7 secs

     total energy              =    -142.26912774 Ry
     Harris-Foulkes estimate   =    -142.27101437 Ry
     estimated scf accuracy    <       0.00855947 Ry

     iteration #  4     ecut=    80.00 Ry     beta= 0.40
     Davidson diagonalization with overlap
     ethr =  9.20E-06,  avg # of iterations =  2.0

     negative rho (up, down):  6.123E-08 0.000E+00

     total cpu time spent up to now is    71303.8 secs

     total energy              =    -142.26976697 Ry
     Harris-Foulkes estimate   =    -142.26980977 Ry
     estimated scf accuracy    <       0.00011422 Ry

     iteration #  5     ecut=    80.00 Ry     beta= 0.40
     Davidson diagonalization with overlap
     ethr =  1.23E-07,  avg # of iterations =  5.0

     negative rho (up, down):  4.291E-08 0.000E+00

     total cpu time spent up to now is    71336.3 secs

     total energy              =    -142.26987734 Ry
     Harris-Foulkes estimate   =    -142.26989434 Ry
     estimated scf accuracy    <       0.00008824 Ry

     iteration #  6     ecut=    80.00 Ry     beta= 0.40
     Davidson diagonalization with overlap
     ethr =  9.49E-08,  avg # of iterations =  3.0

     negative rho (up, down):  3.830E-08 0.000E+00

     total cpu time spent up to now is    71357.0 secs

     total energy              =    -142.26988345 Ry
     Harris-Foulkes estimate   =    -142.26988438 Ry
     estimated scf accuracy    <       0.00001498 Ry

     iteration #  7     ecut=    80.00 Ry     beta= 0.40
     Davidson diagonalization with overlap
     ethr =  1.61E-08,  avg # of iterations =  3.0

     total cpu time spent up to now is    71376.8 secs

     total energy              =    -142.26988283 Ry
     Harris-Foulkes estimate   =    -142.26988434 Ry
     estimated scf accuracy    <       0.00000992 Ry

     iteration #  8     ecut=    80.00 Ry     beta= 0.40
     Davidson diagonalization with overlap
     ethr =  1.07E-08,  avg # of iterations =  5.0

     total cpu time spent up to now is    71401.7 secs

     total energy              =    -142.26988482 Ry
     Harris-Foulkes estimate   =    -142.26988646 Ry
     estimated scf accuracy    <       0.00001342 Ry

     iteration #  9     ecut=    80.00 Ry     beta= 0.40
     Davidson diagonalization with overlap
     ethr =  1.07E-08,  avg # of iterations =  1.0

     total cpu time spent up to now is    71418.6 secs

     total energy              =    -142.26988318 Ry
     Harris-Foulkes estimate   =    -142.26988520 Ry
     estimated scf accuracy    <       0.00000793 Ry

     iteration # 10     ecut=    80.00 Ry     beta= 0.40
     Davidson diagonalization with overlap
     ethr =  8.53E-09,  avg # of iterations =  5.0

     total cpu time spent up to now is    71438.6 secs

     total energy              =    -142.26988374 Ry
     Harris-Foulkes estimate   =    -142.26988387 Ry
     estimated scf accuracy    <       0.00000048 Ry

     iteration # 11     ecut=    80.00 Ry     beta= 0.40
     Davidson diagonalization with overlap
     ethr =  5.16E-10,  avg # of iterations =  5.0

     total cpu time spent up to now is    71464.9 secs

     total energy              =    -142.26988388 Ry
     Harris-Foulkes estimate   =    -142.26988391 Ry
     estimated scf accuracy    <       0.00000028 Ry

     iteration # 12     ecut=    80.00 Ry     beta= 0.40
     Davidson diagonalization with overlap
     ethr =  3.02E-10,  avg # of iterations =  3.0

     total cpu time spent up to now is    71484.6 secs

     total energy              =    -142.26988386 Ry
     Harris-Foulkes estimate   =    -142.26988390 Ry
     estimated scf accuracy    <       0.00000018 Ry

     iteration # 13     ecut=    80.00 Ry     beta= 0.40
     Davidson diagonalization with overlap
     ethr =  1.92E-10,  avg # of iterations =  4.0

     total cpu time spent up to now is    71506.1 secs

     End of self-consistent calculation

          k = 0.0000 0.0000 0.0000 (315191 PWs)   bands (ev):

   -11.6236 -10.7478 -10.7477 -10.7477 -10.7477 -10.7477 -10.7477  -9.0216
    -9.0216  -9.0216  -9.0216  -9.0216  -9.0216  -8.1738  -8.1738  -8.1737
    -8.1737  -8.1737  -8.1737  -5.7781  -5.7781  -5.7781  -5.7781  -5.7781
    -5.7781  -5.7076  -5.7075  -5.7075  -5.7075  -5.7075  -5.7075  -4.8691
    -4.0234  -4.0234  -4.0233  -4.0233  -4.0233  -4.0233  -3.7522  -3.7522
    -3.7522  -3.7522  -3.7521  -3.7521  -2.3345  -2.3345  -2.3345  -2.3345
    -2.3345  -2.3345  -1.8112  -1.8111  -1.8111  -1.8111  -1.8111  -1.8111

     the Fermi energy is    -2.4051 ev

!    total energy              =    -142.26988388 Ry
     Harris-Foulkes estimate   =    -142.26988388 Ry
     estimated scf accuracy    <          3.3E-09 Ry

     The total energy is the sum of the following terms:

     one-electron contribution =    -702.58234837 Ry
     hartree contribution      =     360.19421159 Ry
     xc contribution           =     -63.84994695 Ry
     ewald contribution        =     264.01486420 Ry
     smearing contrib. (-TS)   =      -0.04666436 Ry

     convergence has been achieved in  13 iterations

     Forces acting on atoms (cartesian axes, Ry/au):

     atom    1 type  1   force =    -0.00000155    0.00000098    0.00000000
     atom    2 type  1   force =     0.00000638   -0.00000215    0.00000000
     atom    3 type  1   force =    -0.00000817   -0.00000654    0.00000000
     atom    4 type  1   force =    -0.00000820    0.00000711    0.00000000
     atom    5 type  1   force =     0.00000014   -0.00000342    0.00000000
     atom    6 type  1   force =    -0.00000455    0.00000422    0.00000000
     atom    7 type  1   force =     0.00000333    0.00000163    0.00000000
     atom    8 type  1   force =     0.00000099   -0.00000391    0.00000000
     atom    9 type  1   force =     0.00000512    0.00000160    0.00000000
     atom   10 type  1   force =    -0.00000404    0.00000712    0.00000000
     atom   11 type  1   force =    -0.00000323   -0.00000597    0.00000000
     atom   12 type  1   force =     0.00000431    0.00000449    0.00000000
     atom   13 type  1   force =    -0.00000034   -0.00000491    0.00000000
     atom   14 type  1   force =    -0.00000052   -0.00000342    0.00000000
     atom   15 type  1   force =    -0.00000121    0.00000641    0.00000000
     atom   16 type  1   force =     0.00000173   -0.00000121    0.00000000
     atom   17 type  1   force =     0.00000432    0.00000225    0.00000000
     atom   18 type  1   force =     0.00000102    0.00000046    0.00000000
     atom   19 type  1   force =    -0.00000280   -0.00000226    0.00000000
     atom   20 type  1   force =     0.00000186   -0.00001011    0.00000000
     atom   21 type  1   force =    -0.00000042    0.00000155    0.00000000
     atom   22 type  1   force =     0.00000457   -0.00000085    0.00000000
     atom   23 type  1   force =    -0.00000880   -0.00000095    0.00000000
     atom   24 type  1   force =     0.00000002    0.00000092    0.00000000
     atom   25 type  1   force =    -0.00000042   -0.00000024    0.00000000
     atom   26 type  1   force =    -0.00000251    0.00000389    0.00000000
     atom   27 type  1   force =     0.00000844    0.00000689    0.00000000
     atom   28 type  1   force =    -0.00000102    0.00000400    0.00000000
     atom   29 type  1   force =     0.00000832    0.00000551    0.00000000
     atom   30 type  1   force =    -0.00000183   -0.00000551    0.00000000
     atom   31 type  1   force =    -0.00000096   -0.00000760    0.00000000

     Total force =     0.000035     Total SCF correction =     0.000056
     SCF correction compared to forces is large: reduce conv_thr to get better values


     Computing stress (Cartesian axis) and pressure

          total   stress  (Ry/bohr**3)                   (kbar)     P=    0.00
   0.00000004  -0.00000000   0.00000000          0.01     -0.00      0.00
  -0.00000000   0.00000005   0.00000000         -0.00      0.01      0.00
   0.00000000   0.00000000  -0.00000002          0.00      0.00     -0.00


     Writing output data file 13al_planar_2x2_vcr.save/
 
     init_run     :     42.84s CPU     48.26s WALL (       2 calls)
     electrons    :  49506.20s CPU  57538.43s WALL (     181 calls)
     update_pot   :   2837.76s CPU   2880.61s WALL (     179 calls)
     forces       :   2590.50s CPU   2680.33s WALL (     181 calls)
     stress       :   8068.73s CPU   8278.56s WALL (     181 calls)

     Called by init_run:
     wfcinit      :     23.04s CPU     27.77s WALL (       2 calls)
     potinit      :      7.34s CPU      7.72s WALL (       2 calls)
     hinit0       :      8.71s CPU      8.88s WALL (       2 calls)

     Called by electrons:
     c_bands      :  41284.52s CPU  47710.31s WALL (    1721 calls)
     sum_band     :   5796.81s CPU   6897.67s WALL (    1721 calls)
     v_of_rho     :   2075.20s CPU   2419.97s WALL (    1858 calls)
     mix_rho      :    417.85s CPU    560.59s WALL (    1721 calls)

     Called by c_bands:
     init_us_2    :    715.51s CPU    718.01s WALL (    3444 calls)
     cegterg      :  36314.79s CPU  42732.08s WALL (    1723 calls)

     Called by sum_band:

     Called by *egterg:
     h_psi        :  32414.47s CPU  38644.14s WALL (   11293 calls)
     g_psi        :     92.60s CPU     94.51s WALL (    9568 calls)
     cdiaghg      :     91.84s CPU     92.59s WALL (   11066 calls)

     Called by h_psi:
     h_psi:pot    :  32349.00s CPU  38471.81s WALL (   11293 calls)
     h_psi:calbec :   3713.45s CPU   3722.43s WALL (   11293 calls)
     vloc_psi     :  24952.02s CPU  31060.61s WALL (   11293 calls)
     add_vuspsi   :   3683.39s CPU   3688.68s WALL (   11293 calls)

     General routines
     calbec       :   4239.63s CPU   4249.55s WALL (   12198 calls)
     fft          :   1854.82s CPU   2120.72s WALL (   23328 calls)
     ffts         :    137.79s CPU    157.05s WALL (    1721 calls)
     fftw         :  26354.97s CPU  33326.37s WALL (  680478 calls)
 
     Parallel routines
     fft_scatt_xy :   3954.00s CPU   5461.95s WALL (  705527 calls)
     fft_scatt_yz :  13070.98s CPU  14447.36s WALL (  705527 calls)
 
     PWSCF        :    17h31m CPU       31h19m WALL

      52h
 
   This run was terminated on:  20:24:53  26Nov2020            

=------------------------------------------------------------------------------=
   JOB DONE.
=------------------------------------------------------------------------------=
