
     Program PWSCF v.6.3MaX starts on 25Nov2020 at 17:47:10 

     This program is part of the open-source Quantum ESPRESSO suite
     for quantum simulation of materials; please cite
         "P. Giannozzi et al., J. Phys.:Condens. Matter 21 395502 (2009);
         "P. Giannozzi et al., J. Phys.:Condens. Matter 29 465901 (2017);
          URL http://www.quantum-espresso.org", 
     in publications or presentations arising from this work. More details at
     http://www.quantum-espresso.org/quote

     Parallel version (MPI), running on     8 processors

     MPI processes distributed on     4 nodes
     R & G space division:  proc/nbgrp/npool/nimage =       8
     Waiting for input...
     Reading input from standard input

     Current dimensions of program PWSCF are:
     Max number of different atomic species (ntypx) = 10
     Max number of k-points (npk) =  40000
     Max angular momentum in pseudopotentials (lmaxx) =  3

     Subspace diagonalization in iterative solution of the eigenvalue problem:
     a serial algorithm will be used

 
     Parallelization info
     --------------------
     sticks:   dense  smooth     PW     G-vecs:    dense   smooth      PW
     Min        1758    1758    438               252392   252392   31546
     Max        1759    1759    439               252397   252397   31551
     Sum       14071   14071   3505              2019149  2019149  252395
 


     bravais-lattice index     =            4
     lattice parameter (alat)  =      25.2607  a.u.
     unit-cell volume          =   20885.8003 (a.u.)^3
     number of atoms/cell      =           17
     number of atomic types    =            1
     number of electrons       =        51.00
     number of Kohn-Sham states=           31
     kinetic-energy cutoff     =      80.0000  Ry
     charge density cutoff     =     320.0000  Ry
     convergence threshold     =      1.0E-06
     mixing beta               =       0.4000
     number of iterations used =            8  plain     mixing
     Exchange-correlation      = PBE ( 1  4  3  4 0 0)
     nstep                     =          300


     celldm(1)=  25.260725  celldm(2)=   0.000000  celldm(3)=   1.496177
     celldm(4)=   0.000000  celldm(5)=   0.000000  celldm(6)=   0.000000

     crystal axes: (cart. coord. in units of alat)
               a(1) = (   1.000000   0.000000   0.000000 )  
               a(2) = (  -0.500000   0.866025   0.000000 )  
               a(3) = (   0.000000   0.000000   1.496177 )  

     reciprocal axes: (cart. coord. in units 2 pi/alat)
               b(1) = (  1.000000  0.577350  0.000000 )  
               b(2) = (  0.000000  1.154701  0.000000 )  
               b(3) = (  0.000000  0.000000  0.668370 )  


     PseudoPot. # 1 for Al read from file:
     ./Al.upf
     MD5 check sum: 4974d48a734c9d7d1eb6780a1419d19d
     Pseudo is Norm-conserving + core correction, Zval =  3.0
     Generated using ONCVPSP code by D. R. Hamann
     Using radial grid of 1876 points,  6 beta functions with: 
                l(1) =   0
                l(2) =   0
                l(3) =   1
                l(4) =   1
                l(5) =   2
                l(6) =   2

     atomic species   valence    mass     pseudopotential
        Al             3.00    29.98200     Al( 1.00)

      2 Sym. Ops. (no inversion) found



   Cartesian axes

     site n.     atom                  positions (alat units)
         1           Al  tau(   1) = (   0.0000000   0.1924524   0.0000000  )
         2           Al  tau(   2) = (   0.1666687   0.0962261   0.0000000  )
         3           Al  tau(   3) = (   0.3333348   0.1924537   0.0000000  )
         4           Al  tau(   4) = (   0.5000036   0.0962275   0.0000000  )
         5           Al  tau(   5) = (  -0.1666663   0.4811295   0.0000000  )
         6           Al  tau(   6) = (   0.0000024   0.3849033   0.0000000  )
         7           Al  tau(   7) = (   0.1666686   0.4811309   0.0000000  )
         8           Al  tau(   8) = (   0.3333373   0.3849047   0.0000000  )
         9           Al  tau(   9) = (  -0.3333326   0.7698067   0.0000000  )
        10           Al  tau(  10) = (  -0.1666639   0.6735805   0.0000000  )
        11           Al  tau(  11) = (   0.0000023   0.7698081   0.0000000  )
        12           Al  tau(  12) = (   0.1666710   0.6735818   0.0000000  )
        13           Al  tau(  13) = (   0.6666697   0.1924551   0.0000000  )
        14           Al  tau(  14) = (   0.5000035   0.4811323   0.0000000  )
        15           Al  tau(  15) = (   0.6666722   0.3849060   0.0000000  )
        16           Al  tau(  16) = (   0.3333372   0.7698094   0.0000000  )
        17           Al  tau(  17) = (   0.5000059   0.6735832   0.0000000  )

     number of k points=     1  Methfessel-Paxton smearing, width (Ry)=  0.0500
                       cart. coord. in units 2pi/alat
        k(    1) = (   0.0000000   0.0000000   0.0000000), wk =   2.0000000

     Dense  grid:  2019149 G-vectors     FFT dimensions: ( 144, 144, 216)

     Estimated max dynamical RAM per process >     437.36 MB

     Estimated total dynamical RAM >       3.42 GB

     Initial potential from superposition of free atoms

     starting charge   50.95840, renormalised to   51.00000

     negative rho (up, down):  5.196E-05 0.000E+00
     Starting wfcs are   68 randomized atomic wfcs

     total cpu time spent up to now is       13.5 secs

     Self-consistent Calculation

     iteration #  1     ecut=    80.00 Ry     beta= 0.40
     Davidson diagonalization with overlap
     ethr =  1.00E-02,  avg # of iterations =  2.0

     total cpu time spent up to now is       19.5 secs

     total energy              =     -77.03467425 Ry
     Harris-Foulkes estimate   =     -77.31746669 Ry
     estimated scf accuracy    <       0.79274852 Ry

     iteration #  2     ecut=    80.00 Ry     beta= 0.40
     Davidson diagonalization with overlap
     ethr =  1.55E-03,  avg # of iterations =  4.0

     total cpu time spent up to now is       24.9 secs

     total energy              =     -77.00201175 Ry
     Harris-Foulkes estimate   =     -77.25537803 Ry
     estimated scf accuracy    <       0.82546467 Ry

     iteration #  3     ecut=    80.00 Ry     beta= 0.40
     Davidson diagonalization with overlap
     ethr =  1.55E-03,  avg # of iterations =  3.0

     total cpu time spent up to now is       30.6 secs

     total energy              =     -77.12775895 Ry
     Harris-Foulkes estimate   =     -77.18925498 Ry
     estimated scf accuracy    <       0.28430866 Ry

     iteration #  4     ecut=    80.00 Ry     beta= 0.40
     Davidson diagonalization with overlap
     ethr =  5.57E-04,  avg # of iterations =  2.0

     total cpu time spent up to now is       36.1 secs

     total energy              =     -77.14916609 Ry
     Harris-Foulkes estimate   =     -77.16601476 Ry
     estimated scf accuracy    <       0.07263494 Ry

     iteration #  5     ecut=    80.00 Ry     beta= 0.40
     Davidson diagonalization with overlap
     ethr =  1.42E-04,  avg # of iterations =  3.0

     total cpu time spent up to now is       41.6 secs

     total energy              =     -77.15935933 Ry
     Harris-Foulkes estimate   =     -77.16194157 Ry
     estimated scf accuracy    <       0.01435193 Ry

     iteration #  6     ecut=    80.00 Ry     beta= 0.40
     Davidson diagonalization with overlap
     ethr =  2.81E-05,  avg # of iterations =  3.0

     total cpu time spent up to now is       47.5 secs

     total energy              =     -77.16169009 Ry
     Harris-Foulkes estimate   =     -77.16203459 Ry
     estimated scf accuracy    <       0.00218675 Ry

     iteration #  7     ecut=    80.00 Ry     beta= 0.40
     Davidson diagonalization with overlap
     ethr =  4.29E-06,  avg # of iterations =  4.0

     total cpu time spent up to now is       54.4 secs

     total energy              =     -77.16191552 Ry
     Harris-Foulkes estimate   =     -77.16229744 Ry
     estimated scf accuracy    <       0.00206634 Ry

     iteration #  8     ecut=    80.00 Ry     beta= 0.40
     Davidson diagonalization with overlap
     ethr =  4.05E-06,  avg # of iterations =  1.0

     total cpu time spent up to now is       60.0 secs

     total energy              =     -77.16203291 Ry
     Harris-Foulkes estimate   =     -77.16219903 Ry
     estimated scf accuracy    <       0.00095526 Ry

     iteration #  9     ecut=    80.00 Ry     beta= 0.40
     Davidson diagonalization with overlap
     ethr =  1.87E-06,  avg # of iterations =  1.0

     total cpu time spent up to now is       65.6 secs

     total energy              =     -77.16208515 Ry
     Harris-Foulkes estimate   =     -77.16210792 Ry
     estimated scf accuracy    <       0.00010594 Ry

     iteration # 10     ecut=    80.00 Ry     beta= 0.40
     Davidson diagonalization with overlap
     ethr =  2.08E-07,  avg # of iterations =  5.0

     total cpu time spent up to now is       73.6 secs

     total energy              =     -77.16211708 Ry
     Harris-Foulkes estimate   =     -77.16212742 Ry
     estimated scf accuracy    <       0.00006269 Ry

     iteration # 11     ecut=    80.00 Ry     beta= 0.40
     Davidson diagonalization with overlap
     ethr =  1.23E-07,  avg # of iterations =  2.0

     total cpu time spent up to now is       79.1 secs

     total energy              =     -77.16211680 Ry
     Harris-Foulkes estimate   =     -77.16212539 Ry
     estimated scf accuracy    <       0.00003370 Ry

     iteration # 12     ecut=    80.00 Ry     beta= 0.40
     Davidson diagonalization with overlap
     ethr =  6.61E-08,  avg # of iterations =  3.0

     total cpu time spent up to now is       85.1 secs

     total energy              =     -77.16212114 Ry
     Harris-Foulkes estimate   =     -77.16212173 Ry
     estimated scf accuracy    <       0.00000274 Ry

     iteration # 13     ecut=    80.00 Ry     beta= 0.40
     Davidson diagonalization with overlap
     ethr =  5.37E-09,  avg # of iterations =  5.0

     total cpu time spent up to now is       93.7 secs

     total energy              =     -77.16212150 Ry
     Harris-Foulkes estimate   =     -77.16212312 Ry
     estimated scf accuracy    <       0.00001306 Ry

     iteration # 14     ecut=    80.00 Ry     beta= 0.40
     Davidson diagonalization with overlap
     ethr =  5.37E-09,  avg # of iterations =  4.0

     total cpu time spent up to now is       99.7 secs

     total energy              =     -77.16212167 Ry
     Harris-Foulkes estimate   =     -77.16212227 Ry
     estimated scf accuracy    <       0.00000289 Ry

     iteration # 15     ecut=    80.00 Ry     beta= 0.40
     Davidson diagonalization with overlap
     ethr =  5.37E-09,  avg # of iterations =  3.0

     total cpu time spent up to now is      105.0 secs

     End of self-consistent calculation

          k = 0.0000 0.0000 0.0000 (252395 PWs)   bands (ev):

    -9.9964  -9.1543  -9.0980  -9.0979  -9.0596  -9.0595  -8.4087  -7.5381
    -7.4672  -7.4672  -6.7263  -5.8850  -5.8791  -5.8790  -5.6093  -5.6092
    -4.7519  -4.7519  -4.0025  -3.5337  -3.3088  -3.2898  -3.2898  -3.2353
    -3.1475  -3.1133  -3.1133  -3.0988  -3.0988  -2.7511  -2.7510

     the Fermi energy is    -3.1135 ev

!    total energy              =     -77.16212166 Ry
     Harris-Foulkes estimate   =     -77.16212194 Ry
     estimated scf accuracy    <       0.00000034 Ry

     The total energy is the sum of the following terms:

     one-electron contribution =    -269.13825453 Ry
     hartree contribution      =     139.26259276 Ry
     xc contribution           =     -33.51699013 Ry
     ewald contribution        =      86.35175504 Ry
     smearing contrib. (-TS)   =      -0.12122480 Ry

     convergence has been achieved in  15 iterations

     Forces acting on atoms (cartesian axes, Ry/au):

     atom    1 type  1   force =    -0.01928481   -0.01113125    0.00000000
     atom    2 type  1   force =     0.00400414    0.00308177    0.00000000
     atom    3 type  1   force =     0.00000406   -0.00949906    0.00000000
     atom    4 type  1   force =    -0.00398879    0.00307991    0.00000000
     atom    5 type  1   force =     0.00001087    0.00071440    0.00000000
     atom    6 type  1   force =     0.00463830    0.00194293    0.00000000
     atom    7 type  1   force =    -0.00822082    0.00474444    0.00000000
     atom    8 type  1   force =    -0.00000023    0.00000231    0.00000000
     atom    9 type  1   force =     0.00062164   -0.00035544    0.00000000
     atom   10 type  1   force =     0.00000925   -0.00000989    0.00000000
     atom   11 type  1   force =    -0.00060983   -0.00036525    0.00000000
     atom   12 type  1   force =     0.00063557   -0.00498598    0.00000000
     atom   13 type  1   force =     0.01928893   -0.01114159    0.00000000
     atom   14 type  1   force =     0.00822369    0.00474202    0.00000000
     atom   15 type  1   force =    -0.00465700    0.00192095    0.00000000
     atom   16 type  1   force =    -0.00000853    0.02226587    0.00000000
     atom   17 type  1   force =    -0.00066642   -0.00500613    0.00000000

     Total force =     0.043728     Total SCF correction =     0.000424


     Computing stress (Cartesian axis) and pressure

          total   stress  (Ry/bohr**3)                   (kbar)     P=   -0.80
  -0.00000821   0.00000001   0.00000000         -1.21      0.00      0.00
   0.00000001  -0.00000820   0.00000000          0.00     -1.21      0.00
   0.00000000   0.00000000   0.00000001          0.00      0.00      0.00


     BFGS Geometry Optimization

     number of scf cycles    =   1
     number of bfgs steps    =   0

     enthalpy new            =     -77.1621216632 Ry

     new trust radius        =       0.0222754958 bohr
     new conv_thr            =       0.0000010000 Ry

     new unit-cell volume =  20877.23348 a.u.^3 (  3093.68678 Ang^3 )
     density =      0.27358 g/cm^3

CELL_PARAMETERS (alat= 25.26072511)
   0.999794793   0.000000197   0.000000000
  -0.499897226   0.865847761   0.000000000
   0.000000000   0.000000000   1.496177267

ATOMIC_POSITIONS (angstrom)
Al      -0.010201896   2.566171266   0.000000000
Al       2.229588273   1.287660630   0.000000000
Al       4.454908498   2.567053874   0.000000000
Al       6.680265891   1.287678714   0.000000000
Al      -2.227431034   6.430509986   0.000000000
Al       0.002487082   5.145129660   0.000000000
Al       2.223120268   6.432661219   0.000000000
Al       4.454939415   5.144122007   0.000000000
Al      -4.454544592  10.288015523   0.000000000
Al      -2.227398705   9.002168043   0.000000000
Al      -0.000289698  10.288029400   0.000000000
Al       2.227839090   8.999554418   0.000000000
Al       8.920017945   2.566203936   0.000000000
Al       6.686726972   6.432679009   0.000000000
Al       8.907382092   5.145156170   0.000000000
Al       4.454934862  10.300021885   0.000000000
Al       6.682056677   8.999562825   0.000000000



     Writing output data file 14al_planar_2x2_vcr.save/
     NEW-OLD atomic charge density approx. for the potential

     negative rho (up, down):  3.809E-07 0.000E+00
     extrapolated charge   50.97909, renormalised to   51.00000

     total cpu time spent up to now is      142.6 secs

     Self-consistent Calculation

     iteration #  1     ecut=    80.00 Ry     beta= 0.40
     Davidson diagonalization with overlap
     ethr =  1.00E-06,  avg # of iterations =  4.0

     negative rho (up, down):  1.934E-07 0.000E+00

     total cpu time spent up to now is      151.2 secs

     total energy              =     -77.16398842 Ry
     Harris-Foulkes estimate   =     -77.26500167 Ry
     estimated scf accuracy    <       0.00016296 Ry

     iteration #  2     ecut=    80.00 Ry     beta= 0.40
     Davidson diagonalization with overlap
     ethr =  3.20E-07,  avg # of iterations =  6.0

     negative rho (up, down):  1.679E-07 0.000E+00

     total cpu time spent up to now is      158.7 secs

     total energy              =     -77.16396415 Ry
     Harris-Foulkes estimate   =     -77.16415795 Ry
     estimated scf accuracy    <       0.00113336 Ry

     iteration #  3     ecut=    80.00 Ry     beta= 0.40
     Davidson diagonalization with overlap
     ethr =  3.20E-07,  avg # of iterations =  5.0

     negative rho (up, down):  1.212E-07 0.000E+00

     total cpu time spent up to now is      165.2 secs

     total energy              =     -77.16405378 Ry
     Harris-Foulkes estimate   =     -77.16406767 Ry
     estimated scf accuracy    <       0.00005955 Ry

     iteration #  4     ecut=    80.00 Ry     beta= 0.40
     Davidson diagonalization with overlap
     ethr =  1.17E-07,  avg # of iterations =  5.0

     negative rho (up, down):  8.272E-08 0.000E+00

     total cpu time spent up to now is      171.1 secs

     total energy              =     -77.16405924 Ry
     Harris-Foulkes estimate   =     -77.16406459 Ry
     estimated scf accuracy    <       0.00002290 Ry

     iteration #  5     ecut=    80.00 Ry     beta= 0.40
     Davidson diagonalization with overlap
     ethr =  4.49E-08,  avg # of iterations =  3.0

     negative rho (up, down):  2.944E-08 0.000E+00

     total cpu time spent up to now is      176.6 secs

     total energy              =     -77.16406190 Ry
     Harris-Foulkes estimate   =     -77.16406270 Ry
     estimated scf accuracy    <       0.00000387 Ry

     iteration #  6     ecut=    80.00 Ry     beta= 0.40
     Davidson diagonalization with overlap
     ethr =  7.59E-09,  avg # of iterations =  6.0

     negative rho (up, down):  1.855E-08 0.000E+00

     total cpu time spent up to now is      183.9 secs

     total energy              =     -77.16406208 Ry
     Harris-Foulkes estimate   =     -77.16406340 Ry
     estimated scf accuracy    <       0.00000609 Ry

     iteration #  7     ecut=    80.00 Ry     beta= 0.40
     Davidson diagonalization with overlap
     ethr =  7.59E-09,  avg # of iterations =  3.0

     negative rho (up, down):  1.112E-08 0.000E+00

     total cpu time spent up to now is      189.6 secs

     total energy              =     -77.16406277 Ry
     Harris-Foulkes estimate   =     -77.16406320 Ry
     estimated scf accuracy    <       0.00000273 Ry

     iteration #  8     ecut=    80.00 Ry     beta= 0.40
     Davidson diagonalization with overlap
     ethr =  5.35E-09,  avg # of iterations =  1.0

     total cpu time spent up to now is      194.6 secs

     End of self-consistent calculation

          k = 0.0000 0.0000 0.0000 (252395 PWs)   bands (ev):

    -9.9962  -9.1514  -9.0994  -9.0993  -9.0555  -9.0554  -8.4039  -7.5359
    -7.4655  -7.4655  -6.7338  -5.8835  -5.8717  -5.8716  -5.6129  -5.6128
    -4.7562  -4.7562  -4.0020  -3.5552  -3.2990  -3.2861  -3.2860  -3.2411
    -3.1448  -3.1120  -3.1120  -3.0975  -3.0974  -2.7446  -2.7445

     the Fermi energy is    -3.1120 ev

!    total energy              =     -77.16406292 Ry
     Harris-Foulkes estimate   =     -77.16406299 Ry
     estimated scf accuracy    <       0.00000019 Ry

     The total energy is the sum of the following terms:

     one-electron contribution =    -269.17362878 Ry
     hartree contribution      =     139.27798725 Ry
     xc contribution           =     -33.51190686 Ry
     ewald contribution        =      86.36368146 Ry
     smearing contrib. (-TS)   =      -0.12019598 Ry

     convergence has been achieved in   8 iterations

     Forces acting on atoms (cartesian axes, Ry/au):

     atom    1 type  1   force =    -0.01911382   -0.01105919    0.00000000
     atom    2 type  1   force =     0.00250905    0.00318225    0.00000000
     atom    3 type  1   force =     0.00000272   -0.00789529    0.00000000
     atom    4 type  1   force =    -0.00251375    0.00318101    0.00000000
     atom    5 type  1   force =     0.00000838    0.00027941    0.00000000
     atom    6 type  1   force =     0.00400039    0.00058782    0.00000000
     atom    7 type  1   force =    -0.00682674    0.00394838    0.00000000
     atom    8 type  1   force =    -0.00000122   -0.00000534    0.00000000
     atom    9 type  1   force =     0.00024381   -0.00013335    0.00000000
     atom   10 type  1   force =    -0.00000399    0.00001141    0.00000000
     atom   11 type  1   force =    -0.00023220   -0.00013648    0.00000000
     atom   12 type  1   force =     0.00149340   -0.00376542    0.00000000
     atom   13 type  1   force =     0.01911557   -0.01105733    0.00000000
     atom   14 type  1   force =     0.00683229    0.00394797    0.00000000
     atom   15 type  1   force =    -0.00401204    0.00058540    0.00000000
     atom   16 type  1   force =     0.00000449    0.02209776    0.00000000
     atom   17 type  1   force =    -0.00150635   -0.00376899    0.00000000

     Total force =     0.041823     Total SCF correction =     0.000246


     Computing stress (Cartesian axis) and pressure

          total   stress  (Ry/bohr**3)                   (kbar)     P=   -0.87
  -0.00000887   0.00000001   0.00000000         -1.31      0.00      0.00
   0.00000001  -0.00000886   0.00000000          0.00     -1.30      0.00
   0.00000000   0.00000000   0.00000003          0.00      0.00      0.00


     number of scf cycles    =   2
     number of bfgs steps    =   1

     enthalpy old            =     -77.1621216632 Ry
     enthalpy new            =     -77.1640629161 Ry

     CASE: enthalpy_new < enthalpy_old


     WARNING: bfgs curvature condition failed, Theta= 0.837
     new trust radius        =       0.0334063831 bohr
     new conv_thr            =       0.0000010000 Ry

     new unit-cell volume =  20863.80561 a.u.^3 (  3091.69697 Ang^3 )
     density =      0.27375 g/cm^3

CELL_PARAMETERS (alat= 25.26072511)
   0.999473043   0.000000472   0.000000000
  -0.499736113   0.865569279   0.000000000
   0.000000000   0.000000000   1.496177267

ATOMIC_POSITIONS (angstrom)
Al      -0.025493875   2.556506725   0.000000000
Al       2.231460527   1.289742997   0.000000000
Al       4.453478237   2.559306186   0.000000000
Al       6.675531187   1.289761064   0.000000000
Al      -2.226704784   6.428836542   0.000000000
Al       0.005926807   5.144479106   0.000000000
Al       2.216417069   6.434054044   0.000000000
Al       4.453506580   5.142468316   0.000000000
Al      -4.452764766  10.284513063   0.000000000
Al      -2.226677367   8.999274183   0.000000000
Al      -0.000620893  10.284523033   0.000000000
Al       2.227975691   8.993179956   0.000000000
Al       8.932446335   2.556538523   0.000000000
Al       6.690569748   6.434071943   0.000000000
Al       8.901065796   5.144498405   0.000000000
Al       4.453502475  10.314384176   0.000000000
Al       6.679040292   8.993180192   0.000000000



     Writing output data file 14al_planar_2x2_vcr.save/
     NEW-OLD atomic charge density approx. for the potential

     negative rho (up, down):  6.041E-07 0.000E+00
     extrapolated charge   50.96720, renormalised to   51.00000

     total cpu time spent up to now is      230.2 secs

     Self-consistent Calculation

     iteration #  1     ecut=    80.00 Ry     beta= 0.40
     Davidson diagonalization with overlap
     ethr =  1.00E-06,  avg # of iterations =  4.0

     negative rho (up, down):  3.119E-07 0.000E+00

     total cpu time spent up to now is      237.9 secs

     total energy              =     -77.16669157 Ry
     Harris-Foulkes estimate   =     -77.32513318 Ry
     estimated scf accuracy    <       0.00021709 Ry

     iteration #  2     ecut=    80.00 Ry     beta= 0.40
     Davidson diagonalization with overlap
     ethr =  4.26E-07,  avg # of iterations =  4.0

     negative rho (up, down):  2.600E-07 0.000E+00

     total cpu time spent up to now is      244.0 secs

     total energy              =     -77.16671623 Ry
     Harris-Foulkes estimate   =     -77.16687215 Ry
     estimated scf accuracy    <       0.00074141 Ry

     iteration #  3     ecut=    80.00 Ry     beta= 0.40
     Davidson diagonalization with overlap
     ethr =  4.26E-07,  avg # of iterations =  3.0

     negative rho (up, down):  1.835E-07 0.000E+00

     total cpu time spent up to now is      249.3 secs

     total energy              =     -77.16678196 Ry
     Harris-Foulkes estimate   =     -77.16679829 Ry
     estimated scf accuracy    <       0.00006881 Ry

     iteration #  4     ecut=    80.00 Ry     beta= 0.40
     Davidson diagonalization with overlap
     ethr =  1.35E-07,  avg # of iterations =  3.0

     negative rho (up, down):  1.274E-07 0.000E+00

     total cpu time spent up to now is      254.1 secs

     total energy              =     -77.16678477 Ry
     Harris-Foulkes estimate   =     -77.16679394 Ry
     estimated scf accuracy    <       0.00003894 Ry

     iteration #  5     ecut=    80.00 Ry     beta= 0.40
     Davidson diagonalization with overlap
     ethr =  7.64E-08,  avg # of iterations =  3.0

     negative rho (up, down):  3.521E-08 0.000E+00

     total cpu time spent up to now is      258.7 secs

     total energy              =     -77.16678909 Ry
     Harris-Foulkes estimate   =     -77.16679171 Ry
     estimated scf accuracy    <       0.00001460 Ry

     iteration #  6     ecut=    80.00 Ry     beta= 0.40
     Davidson diagonalization with overlap
     ethr =  2.86E-08,  avg # of iterations =  3.0

     negative rho (up, down):  2.395E-08 0.000E+00

     total cpu time spent up to now is      263.7 secs

     total energy              =     -77.16679008 Ry
     Harris-Foulkes estimate   =     -77.16679220 Ry
     estimated scf accuracy    <       0.00001063 Ry

     iteration #  7     ecut=    80.00 Ry     beta= 0.40
     Davidson diagonalization with overlap
     ethr =  2.08E-08,  avg # of iterations =  1.0

     negative rho (up, down):  1.623E-08 0.000E+00

     total cpu time spent up to now is      268.0 secs

     total energy              =     -77.16679120 Ry
     Harris-Foulkes estimate   =     -77.16679143 Ry
     estimated scf accuracy    <       0.00000105 Ry

     iteration #  8     ecut=    80.00 Ry     beta= 0.40
     Davidson diagonalization with overlap
     ethr =  2.06E-09,  avg # of iterations =  4.0

     total cpu time spent up to now is      273.6 secs

     End of self-consistent calculation

          k = 0.0000 0.0000 0.0000 (252395 PWs)   bands (ev):

    -9.9960  -9.1474  -9.1020  -9.1018  -9.0488  -9.0486  -8.3977  -7.5323
    -7.4628  -7.4628  -6.7446  -5.8809  -5.8613  -5.8612  -5.6177  -5.6177
    -4.7625  -4.7624  -4.0013  -3.5881  -3.2845  -3.2803  -3.2802  -3.2487
    -3.1409  -3.1121  -3.1121  -3.0933  -3.0932  -2.7351  -2.7349

     the Fermi energy is    -3.1095 ev

!    total energy              =     -77.16679113 Ry
     Harris-Foulkes estimate   =     -77.16679145 Ry
     estimated scf accuracy    <       0.00000053 Ry

     The total energy is the sum of the following terms:

     one-electron contribution =    -269.23224900 Ry
     hartree contribution      =     139.30352180 Ry
     xc contribution           =     -33.50459334 Ry
     ewald contribution        =      86.38520534 Ry
     smearing contrib. (-TS)   =      -0.11867593 Ry

     convergence has been achieved in   8 iterations

     Forces acting on atoms (cartesian axes, Ry/au):

     atom    1 type  1   force =    -0.01887337   -0.01091019    0.00000000
     atom    2 type  1   force =     0.00040993    0.00328713    0.00000000
     atom    3 type  1   force =     0.00000150   -0.00572665    0.00000000
     atom    4 type  1   force =    -0.00041163    0.00328896    0.00000000
     atom    5 type  1   force =     0.00000314   -0.00033472    0.00000000
     atom    6 type  1   force =     0.00304376   -0.00129894    0.00000000
     atom    7 type  1   force =    -0.00495611    0.00285958    0.00000000
     atom    8 type  1   force =     0.00000303   -0.00002132    0.00000000
     atom    9 type  1   force =    -0.00028617    0.00017935    0.00000000
     atom   10 type  1   force =    -0.00000494    0.00000873    0.00000000
     atom   11 type  1   force =     0.00029107    0.00018090    0.00000000
     atom   12 type  1   force =     0.00262734   -0.00199019    0.00000000
     atom   13 type  1   force =     0.01887290   -0.01090499    0.00000000
     atom   14 type  1   force =     0.00495970    0.00285742    0.00000000
     atom   15 type  1   force =    -0.00305268   -0.00130015    0.00000000
     atom   16 type  1   force =     0.00000425    0.02181752    0.00000000
     atom   17 type  1   force =    -0.00263172   -0.00199245    0.00000000

     Total force =     0.039883     Total SCF correction =     0.000481


     Computing stress (Cartesian axis) and pressure

          total   stress  (Ry/bohr**3)                   (kbar)     P=   -0.96
  -0.00000981   0.00000000   0.00000000         -1.44      0.00      0.00
   0.00000000  -0.00000981   0.00000000          0.00     -1.44      0.00
   0.00000000   0.00000000   0.00000005          0.00      0.00      0.01


     number of scf cycles    =   3
     number of bfgs steps    =   2

     enthalpy old            =     -77.1640629161 Ry
     enthalpy new            =     -77.1667911333 Ry

     CASE: enthalpy_new < enthalpy_old

     new trust radius        =       0.0500934659 bohr
     new conv_thr            =       0.0000010000 Ry

     new unit-cell volume =  20842.37710 a.u.^3 (  3088.52160 Ang^3 )
     density =      0.27404 g/cm^3

CELL_PARAMETERS (alat= 25.26072511)
   0.998959462   0.000000831   0.000000000
  -0.499479011   0.865124649   0.000000000
   0.000000000   0.000000000   1.496177267

ATOMIC_POSITIONS (angstrom)
Al      -0.048415102   2.541948120   0.000000000
Al       2.232912330   1.292911935   0.000000000
Al       4.451194058   2.548893714   0.000000000
Al       6.669513062   1.292931739   0.000000000
Al      -2.225550073   6.425746458   0.000000000
Al       0.010516176   5.142175173   0.000000000
Al       2.207404254   6.435295073   0.000000000
Al       4.451222028   5.139817288   0.000000000
Al      -4.450285396  10.279133086   0.000000000
Al      -2.225526633   8.994650292   0.000000000
Al      -0.000794893  10.279139599   0.000000000
Al       2.228822974   8.984418595   0.000000000
Al       8.950794699   2.541979576   0.000000000
Al       6.695013908   6.435311590   0.000000000
Al       8.891886410   5.142182614   0.000000000
Al       4.451214392  10.335584274   0.000000000
Al       6.673600911   8.984406049   0.000000000



     Writing output data file 14al_planar_2x2_vcr.save/
     NEW-OLD atomic charge density approx. for the potential

     negative rho (up, down):  9.286E-07 0.000E+00
     extrapolated charge   50.94761, renormalised to   51.00000

     total cpu time spent up to now is      310.8 secs

     Self-consistent Calculation

     iteration #  1     ecut=    80.00 Ry     beta= 0.40
     Davidson diagonalization with overlap
     ethr =  1.00E-06,  avg # of iterations =  6.0

     negative rho (up, down):  4.854E-07 0.000E+00

     total cpu time spent up to now is      319.0 secs

     total energy              =     -77.17039626 Ry
     Harris-Foulkes estimate   =     -77.42362248 Ry
     estimated scf accuracy    <       0.00040066 Ry

     iteration #  2     ecut=    80.00 Ry     beta= 0.40
     Davidson diagonalization with overlap
     ethr =  7.86E-07,  avg # of iterations =  5.0

     negative rho (up, down):  4.081E-07 0.000E+00

     total cpu time spent up to now is      325.4 secs

     total energy              =     -77.17045864 Ry
     Harris-Foulkes estimate   =     -77.17076844 Ry
     estimated scf accuracy    <       0.00153954 Ry

     iteration #  3     ecut=    80.00 Ry     beta= 0.40
     Davidson diagonalization with overlap
     ethr =  7.86E-07,  avg # of iterations =  3.0

     negative rho (up, down):  3.019E-07 0.000E+00

     total cpu time spent up to now is      330.8 secs

     total energy              =     -77.17058477 Ry
     Harris-Foulkes estimate   =     -77.17061377 Ry
     estimated scf accuracy    <       0.00013012 Ry

     iteration #  4     ecut=    80.00 Ry     beta= 0.40
     Davidson diagonalization with overlap
     ethr =  2.55E-07,  avg # of iterations =  5.0

     negative rho (up, down):  2.160E-07 0.000E+00

     total cpu time spent up to now is      335.7 secs

     total energy              =     -77.17058691 Ry
     Harris-Foulkes estimate   =     -77.17060417 Ry
     estimated scf accuracy    <       0.00007878 Ry

     iteration #  5     ecut=    80.00 Ry     beta= 0.40
     Davidson diagonalization with overlap
     ethr =  1.54E-07,  avg # of iterations =  4.0

     negative rho (up, down):  5.330E-08 0.000E+00

     total cpu time spent up to now is      340.3 secs

     total energy              =     -77.17059284 Ry
     Harris-Foulkes estimate   =     -77.17059981 Ry
     estimated scf accuracy    <       0.00003707 Ry

     iteration #  6     ecut=    80.00 Ry     beta= 0.40
     Davidson diagonalization with overlap
     ethr =  7.27E-08,  avg # of iterations =  3.0

     negative rho (up, down):  3.237E-08 0.000E+00

     total cpu time spent up to now is      345.1 secs

     total energy              =     -77.17059610 Ry
     Harris-Foulkes estimate   =     -77.17059909 Ry
     estimated scf accuracy    <       0.00001294 Ry

     iteration #  7     ecut=    80.00 Ry     beta= 0.40
     Davidson diagonalization with overlap
     ethr =  2.54E-08,  avg # of iterations =  4.0

     negative rho (up, down):  2.339E-08 0.000E+00

     total cpu time spent up to now is      350.0 secs

     total energy              =     -77.17059799 Ry
     Harris-Foulkes estimate   =     -77.17059870 Ry
     estimated scf accuracy    <       0.00000372 Ry

     iteration #  8     ecut=    80.00 Ry     beta= 0.40
     Davidson diagonalization with overlap
     ethr =  7.30E-09,  avg # of iterations =  4.0

     negative rho (up, down):  1.422E-08 0.000E+00

     total cpu time spent up to now is      354.9 secs

     total energy              =     -77.17059814 Ry
     Harris-Foulkes estimate   =     -77.17059851 Ry
     estimated scf accuracy    <       0.00000166 Ry

     iteration #  9     ecut=    80.00 Ry     beta= 0.40
     Davidson diagonalization with overlap
     ethr =  3.25E-09,  avg # of iterations =  3.0

     total cpu time spent up to now is      359.9 secs

     total energy              =     -77.17059828 Ry
     Harris-Foulkes estimate   =     -77.17059851 Ry
     estimated scf accuracy    <       0.00000158 Ry

     iteration # 10     ecut=    80.00 Ry     beta= 0.40
     Davidson diagonalization with overlap
     ethr =  3.10E-09,  avg # of iterations =  2.0

     total cpu time spent up to now is      364.4 secs

     End of self-consistent calculation

          k = 0.0000 0.0000 0.0000 (252395 PWs)   bands (ev):

    -9.9948  -9.1413  -9.1048  -9.1047  -9.0377  -9.0377  -8.3903  -7.5257
    -7.4581  -7.4579  -6.7596  -5.8754  -5.8463  -5.8463  -5.6232  -5.6232
    -4.7708  -4.7708  -3.9996  -3.6398  -3.2704  -3.2704  -3.2655  -3.2540
    -3.1350  -3.1129  -3.1129  -3.0850  -3.0849  -2.7208  -2.7208

     the Fermi energy is    -3.1047 ev

!    total energy              =     -77.17059830 Ry
     Harris-Foulkes estimate   =     -77.17059847 Ry
     estimated scf accuracy    <       0.00000021 Ry

     The total energy is the sum of the following terms:

     one-electron contribution =    -269.32962179 Ry
     hartree contribution      =     139.34389988 Ry
     xc contribution           =     -33.49359917 Ry
     ewald contribution        =      86.42522247 Ry
     smearing contrib. (-TS)   =      -0.11649968 Ry

     convergence has been achieved in  10 iterations

     Forces acting on atoms (cartesian axes, Ry/au):

     atom    1 type  1   force =    -0.01846795   -0.01065654    0.00000000
     atom    2 type  1   force =    -0.00245630    0.00338497    0.00000000
     atom    3 type  1   force =     0.00000217   -0.00291481    0.00000000
     atom    4 type  1   force =     0.00244729    0.00337641    0.00000000
     atom    5 type  1   force =     0.00000221   -0.00112221    0.00000000
     atom    6 type  1   force =     0.00170643   -0.00381114    0.00000000
     atom    7 type  1   force =    -0.00252791    0.00146075    0.00000000
     atom    8 type  1   force =    -0.00000502    0.00001063    0.00000000
     atom    9 type  1   force =    -0.00096513    0.00055262    0.00000000
     atom   10 type  1   force =     0.00000176   -0.00000165    0.00000000
     atom   11 type  1   force =     0.00096980    0.00055720    0.00000000
     atom   12 type  1   force =     0.00416131    0.00042877    0.00000000
     atom   13 type  1   force =     0.01846775   -0.01065638    0.00000000
     atom   14 type  1   force =     0.00252829    0.00145073    0.00000000
     atom   15 type  1   force =    -0.00170184   -0.00381177    0.00000000
     atom   16 type  1   force =     0.00000053    0.02131512    0.00000000
     atom   17 type  1   force =    -0.00416339    0.00043729    0.00000000

     Total force =     0.038699     Total SCF correction =     0.000335


     Computing stress (Cartesian axis) and pressure

          total   stress  (Ry/bohr**3)                   (kbar)     P=   -1.10
  -0.00001117   0.00000000   0.00000000         -1.64      0.00      0.00
   0.00000000  -0.00001117   0.00000000          0.00     -1.64      0.00
   0.00000000   0.00000000  -0.00000002          0.00      0.00     -0.00


     number of scf cycles    =   4
     number of bfgs steps    =   3

     enthalpy old            =     -77.1667911333 Ry
     enthalpy new            =     -77.1705982999 Ry

     CASE: enthalpy_new < enthalpy_old

     new trust radius        =       0.0751016159 bohr
     new conv_thr            =       0.0000010000 Ry

     new unit-cell volume =  20808.53921 a.u.^3 (  3083.50734 Ang^3 )
     density =      0.27448 g/cm^3

CELL_PARAMETERS (alat= 25.26072511)
   0.998147957   0.000001301   0.000000000
  -0.499072852   0.864422085   0.000000000
   0.000000000   0.000000000   1.496177267

ATOMIC_POSITIONS (angstrom)
Al      -0.082760197   2.520039559   0.000000000
Al       2.233458947   1.297689614   0.000000000
Al       4.447585096   2.534597034   0.000000000
Al       6.661746317   1.297704056   0.000000000
Al      -2.223726426   6.420426768   0.000000000
Al       0.016702630   5.137151899   0.000000000
Al       2.195025814   6.436182633   0.000000000
Al       4.447605477   5.135653491   0.000000000
Al      -4.446745513  10.270834532   0.000000000
Al      -2.223703725   8.987335555   0.000000000
Al      -0.000693928  10.270836435   0.000000000
Al       2.230848433   8.972190795   0.000000000
Al       8.977914258   2.520065047   0.000000000
Al       6.700169831   6.436191445   0.000000000
Al       8.878455920   5.137139587   0.000000000
Al       4.447594791  10.366892514   0.000000000
Al       6.664318331   8.972164652   0.000000000



     Writing output data file 14al_planar_2x2_vcr.save/
     NEW-OLD atomic charge density approx. for the potential

     negative rho (up, down):  1.408E-06 0.000E+00
     extrapolated charge   50.91713, renormalised to   51.00000

     total cpu time spent up to now is      399.8 secs

     Self-consistent Calculation

     iteration #  1     ecut=    80.00 Ry     beta= 0.40
     Davidson diagonalization with overlap
     ethr =  1.00E-06,  avg # of iterations =  7.0

     negative rho (up, down):  7.491E-07 0.000E+00

     total cpu time spent up to now is      408.7 secs

     total energy              =     -77.17527914 Ry
     Harris-Foulkes estimate   =     -77.57632515 Ry
     estimated scf accuracy    <       0.00110109 Ry

     iteration #  2     ecut=    80.00 Ry     beta= 0.40
     Davidson diagonalization with overlap
     ethr =  2.16E-06,  avg # of iterations =  5.0

     negative rho (up, down):  6.380E-07 0.000E+00

     total cpu time spent up to now is      415.2 secs

     total energy              =     -77.17540712 Ry
     Harris-Foulkes estimate   =     -77.17648911 Ry
     estimated scf accuracy    <       0.00569844 Ry

     iteration #  3     ecut=    80.00 Ry     beta= 0.40
     Davidson diagonalization with overlap
     ethr =  2.16E-06,  avg # of iterations =  4.0

     negative rho (up, down):  5.084E-07 0.000E+00

     total cpu time spent up to now is      420.6 secs

     total energy              =     -77.17584469 Ry
     Harris-Foulkes estimate   =     -77.17592361 Ry
     estimated scf accuracy    <       0.00038239 Ry

     iteration #  4     ecut=    80.00 Ry     beta= 0.40
     Davidson diagonalization with overlap
     ethr =  7.50E-07,  avg # of iterations =  5.0

     negative rho (up, down):  3.861E-07 0.000E+00

     total cpu time spent up to now is      425.6 secs

     total energy              =     -77.17586104 Ry
     Harris-Foulkes estimate   =     -77.17590008 Ry
     estimated scf accuracy    <       0.00022047 Ry

     iteration #  5     ecut=    80.00 Ry     beta= 0.40
     Davidson diagonalization with overlap
     ethr =  4.32E-07,  avg # of iterations =  4.0

     negative rho (up, down):  5.839E-08 0.000E+00

     total cpu time spent up to now is      430.1 secs

     total energy              =     -77.17586646 Ry
     Harris-Foulkes estimate   =     -77.17588268 Ry
     estimated scf accuracy    <       0.00006841 Ry

     iteration #  6     ecut=    80.00 Ry     beta= 0.40
     Davidson diagonalization with overlap
     ethr =  1.34E-07,  avg # of iterations =  4.0

     negative rho (up, down):  4.239E-08 0.000E+00

     total cpu time spent up to now is      435.7 secs

     total energy              =     -77.17587853 Ry
     Harris-Foulkes estimate   =     -77.17588318 Ry
     estimated scf accuracy    <       0.00002231 Ry

     iteration #  7     ecut=    80.00 Ry     beta= 0.40
     Davidson diagonalization with overlap
     ethr =  4.37E-08,  avg # of iterations =  4.0

     negative rho (up, down):  3.409E-08 0.000E+00

     total cpu time spent up to now is      440.5 secs

     total energy              =     -77.17587928 Ry
     Harris-Foulkes estimate   =     -77.17588190 Ry
     estimated scf accuracy    <       0.00001476 Ry

     iteration #  8     ecut=    80.00 Ry     beta= 0.40
     Davidson diagonalization with overlap
     ethr =  2.89E-08,  avg # of iterations =  1.0

     negative rho (up, down):  1.304E-08 0.000E+00

     total cpu time spent up to now is      444.8 secs

     total energy              =     -77.17587955 Ry
     Harris-Foulkes estimate   =     -77.17588057 Ry
     estimated scf accuracy    <       0.00000401 Ry

     iteration #  9     ecut=    80.00 Ry     beta= 0.40
     Davidson diagonalization with overlap
     ethr =  7.86E-09,  avg # of iterations =  4.0

     total cpu time spent up to now is      450.3 secs

     total energy              =     -77.17587993 Ry
     Harris-Foulkes estimate   =     -77.17588071 Ry
     estimated scf accuracy    <       0.00000510 Ry

     iteration # 10     ecut=    80.00 Ry     beta= 0.40
     Davidson diagonalization with overlap
     ethr =  7.86E-09,  avg # of iterations =  2.0

     total cpu time spent up to now is      454.6 secs

     End of self-consistent calculation

          k = 0.0000 0.0000 0.0000 (252395 PWs)   bands (ev):

    -9.9943  -9.1335  -9.1100  -9.1100  -9.0239  -9.0237  -8.3842  -7.5175
    -7.4522  -7.4521  -6.7838  -5.8674  -5.8275  -5.8274  -5.6320  -5.6319
    -4.7846  -4.7845  -3.9980  -3.7243  -3.2732  -3.2566  -3.2566  -3.2270
    -3.1266  -3.1148  -3.1148  -3.0739  -3.0737  -2.7020  -2.7020

     the Fermi energy is    -3.0976 ev

!    total energy              =     -77.17587983 Ry
     Harris-Foulkes estimate   =     -77.17588037 Ry
     estimated scf accuracy    <       0.00000066 Ry

     The total energy is the sum of the following terms:

     one-electron contribution =    -269.50013943 Ry
     hartree contribution      =     139.41927931 Ry
     xc contribution           =     -33.47908888 Ry
     ewald contribution        =      86.49770554 Ry
     smearing contrib. (-TS)   =      -0.11363637 Ry

     convergence has been achieved in  10 iterations

     Forces acting on atoms (cartesian axes, Ry/au):

     atom    1 type  1   force =    -0.01748025   -0.01009745    0.00000000
     atom    2 type  1   force =    -0.00642211    0.00333642    0.00000000
     atom    3 type  1   force =     0.00000653    0.00083818    0.00000000
     atom    4 type  1   force =     0.00641495    0.00333132    0.00000000
     atom    5 type  1   force =    -0.00001055   -0.00220566    0.00000000
     atom    6 type  1   force =    -0.00031303   -0.00725482    0.00000000
     atom    7 type  1   force =     0.00072200   -0.00042206    0.00000000
     atom    8 type  1   force =     0.00000286   -0.00002587    0.00000000
     atom    9 type  1   force =    -0.00189871    0.00109517    0.00000000
     atom   10 type  1   force =    -0.00000116    0.00002860    0.00000000
     atom   11 type  1   force =     0.00189366    0.00110891    0.00000000
     atom   12 type  1   force =     0.00609729    0.00390647    0.00000000
     atom   13 type  1   force =     0.01748055   -0.01009506    0.00000000
     atom   14 type  1   force =    -0.00072469   -0.00042678    0.00000000
     atom   15 type  1   force =     0.00032449   -0.00725060    0.00000000
     atom   16 type  1   force =    -0.00000344    0.02021889    0.00000000
     atom   17 type  1   force =    -0.00608840    0.00391434    0.00000000

     Total force =     0.039437     Total SCF correction =     0.000702


     Computing stress (Cartesian axis) and pressure

          total   stress  (Ry/bohr**3)                   (kbar)     P=   -1.28
  -0.00001310   0.00000000   0.00000000         -1.93      0.00      0.00
   0.00000000  -0.00001311   0.00000000          0.00     -1.93      0.00
   0.00000000   0.00000000   0.00000001          0.00      0.00      0.00


     number of scf cycles    =   5
     number of bfgs steps    =   4

     enthalpy old            =     -77.1705982999 Ry
     enthalpy new            =     -77.1758798326 Ry

     CASE: enthalpy_new < enthalpy_old

     new trust radius        =       0.1125608795 bohr
     new conv_thr            =       0.0000010000 Ry

     new unit-cell volume =  20755.22359 a.u.^3 (  3075.60678 Ang^3 )
     density =      0.27519 g/cm^3

CELL_PARAMETERS (alat= 25.26072511)
   0.996868250   0.000001986   0.000000000
  -0.498432405   0.863313759   0.000000000
   0.000000000   0.000000000   1.496177267

ATOMIC_POSITIONS (angstrom)
Al      -0.134151321   2.487077723   0.000000000
Al       2.232122109   1.304782620   0.000000000
Al       4.441896864   2.514694564   0.000000000
Al       6.651700051   1.304792112   0.000000000
Al      -2.220859914   6.411490887   0.000000000
Al       0.024979682   5.127519213   0.000000000
Al       2.177796661   6.436251673   0.000000000
Al       4.441908402   5.129056576   0.000000000
Al      -4.441632472  10.258016982   0.000000000
Al      -2.220831961   8.975819086   0.000000000
Al      -0.000073551  10.258016740   0.000000000
Al       2.234755561   8.955042551   0.000000000
Al       9.017911367   2.487094686   0.000000000
Al       6.706006735   6.436253770   0.000000000
Al       8.858758039   5.127478325   0.000000000
Al       4.441883321  10.413096000   0.000000000
Al       6.648972831   8.954992143   0.000000000



     Writing output data file 14al_planar_2x2_vcr.save/
     NEW-OLD atomic charge density approx. for the potential

     negative rho (up, down):  2.103E-06 0.000E+00
     extrapolated charge   50.86910, renormalised to   51.00000

     total cpu time spent up to now is      491.2 secs

     Self-consistent Calculation

     iteration #  1     ecut=    80.00 Ry     beta= 0.40
     Davidson diagonalization with overlap
     ethr =  1.00E-06,  avg # of iterations =  8.0

     negative rho (up, down):  1.140E-06 0.000E+00

     total cpu time spent up to now is      501.3 secs

     total energy              =     -77.18111768 Ry
     Harris-Foulkes estimate   =     -77.81613360 Ry
     estimated scf accuracy    <       0.00311240 Ry

     iteration #  2     ecut=    80.00 Ry     beta= 0.40
     Davidson diagonalization with overlap
     ethr =  6.10E-06,  avg # of iterations =  5.0

     negative rho (up, down):  9.697E-07 0.000E+00

     total cpu time spent up to now is      507.6 secs

     total energy              =     -77.18148119 Ry
     Harris-Foulkes estimate   =     -77.18472232 Ry
     estimated scf accuracy    <       0.01706596 Ry

     iteration #  3     ecut=    80.00 Ry     beta= 0.40
     Davidson diagonalization with overlap
     ethr =  6.10E-06,  avg # of iterations =  4.0

     negative rho (up, down):  7.977E-07 0.000E+00

     total cpu time spent up to now is      513.4 secs

     total energy              =     -77.18278701 Ry
     Harris-Foulkes estimate   =     -77.18298646 Ry
     estimated scf accuracy    <       0.00104572 Ry

     iteration #  4     ecut=    80.00 Ry     beta= 0.40
     Davidson diagonalization with overlap
     ethr =  2.05E-06,  avg # of iterations =  5.0

     negative rho (up, down):  6.218E-07 0.000E+00

     total cpu time spent up to now is      518.4 secs

     total energy              =     -77.18283749 Ry
     Harris-Foulkes estimate   =     -77.18292217 Ry
     estimated scf accuracy    <       0.00052688 Ry

     iteration #  5     ecut=    80.00 Ry     beta= 0.40
     Davidson diagonalization with overlap
     ethr =  1.03E-06,  avg # of iterations =  4.0

     negative rho (up, down):  7.507E-08 0.000E+00

     total cpu time spent up to now is      523.0 secs

     total energy              =     -77.18282513 Ry
     Harris-Foulkes estimate   =     -77.18287912 Ry
     estimated scf accuracy    <       0.00019169 Ry

     iteration #  6     ecut=    80.00 Ry     beta= 0.40
     Davidson diagonalization with overlap
     ethr =  3.76E-07,  avg # of iterations =  4.0

     negative rho (up, down):  4.588E-08 0.000E+00

     total cpu time spent up to now is      528.8 secs

     total energy              =     -77.18286582 Ry
     Harris-Foulkes estimate   =     -77.18287966 Ry
     estimated scf accuracy    <       0.00007694 Ry

     iteration #  7     ecut=    80.00 Ry     beta= 0.40
     Davidson diagonalization with overlap
     ethr =  1.51E-07,  avg # of iterations =  3.0

     negative rho (up, down):  3.821E-08 0.000E+00

     total cpu time spent up to now is      533.4 secs

     total energy              =     -77.18286732 Ry
     Harris-Foulkes estimate   =     -77.18287465 Ry
     estimated scf accuracy    <       0.00004677 Ry

     iteration #  8     ecut=    80.00 Ry     beta= 0.40
     Davidson diagonalization with overlap
     ethr =  9.17E-08,  avg # of iterations =  1.0

     negative rho (up, down):  2.054E-08 0.000E+00

     total cpu time spent up to now is      537.8 secs

     total energy              =     -77.18286595 Ry
     Harris-Foulkes estimate   =     -77.18287022 Ry
     estimated scf accuracy    <       0.00001731 Ry

     iteration #  9     ecut=    80.00 Ry     beta= 0.40
     Davidson diagonalization with overlap
     ethr =  3.39E-08,  avg # of iterations =  3.0

     total cpu time spent up to now is      543.0 secs

     total energy              =     -77.18286696 Ry
     Harris-Foulkes estimate   =     -77.18286885 Ry
     estimated scf accuracy    <       0.00000973 Ry

     iteration # 10     ecut=    80.00 Ry     beta= 0.40
     Davidson diagonalization with overlap
     ethr =  1.91E-08,  avg # of iterations =  3.0

     total cpu time spent up to now is      547.6 secs

     total energy              =     -77.18286790 Ry
     Harris-Foulkes estimate   =     -77.18286815 Ry
     estimated scf accuracy    <       0.00000150 Ry

     iteration # 11     ecut=    80.00 Ry     beta= 0.40
     Davidson diagonalization with overlap
     ethr =  2.94E-09,  avg # of iterations =  6.0

     total cpu time spent up to now is      553.4 secs

     End of self-consistent calculation

          k = 0.0000 0.0000 0.0000 (252395 PWs)   bands (ev):

    -9.9934  -9.1206  -9.1162  -9.1162  -9.0056  -9.0055  -8.3835  -7.5052
    -7.4437  -7.4436  -6.8236  -5.8529  -5.8028  -5.8027  -5.6442  -5.6441
    -4.8051  -4.8050  -3.9953  -3.8672  -3.2899  -3.2346  -3.2346  -3.1777
    -3.1158  -3.1158  -3.1128  -3.0592  -3.0592  -2.6761  -2.6760

     the Fermi energy is    -3.0846 ev

!    total energy              =     -77.18286777 Ry
     Harris-Foulkes estimate   =     -77.18286824 Ry
     estimated scf accuracy    <       0.00000070 Ry

     The total energy is the sum of the following terms:

     one-electron contribution =    -269.78864942 Ry
     hartree contribution      =     139.54563870 Ry
     xc contribution           =     -33.45855727 Ry
     ewald contribution        =      86.62963819 Ry
     smearing contrib. (-TS)   =      -0.11093798 Ry

     convergence has been achieved in  11 iterations

     Forces acting on atoms (cartesian axes, Ry/au):

     atom    1 type  1   force =    -0.01491278   -0.00861458    0.00000000
     atom    2 type  1   force =    -0.01204082    0.00282486    0.00000000
     atom    3 type  1   force =    -0.00000165    0.00598720    0.00000000
     atom    4 type  1   force =     0.01203440    0.00284021    0.00000000
     atom    5 type  1   force =    -0.00000980   -0.00365339    0.00000000
     atom    6 type  1   force =    -0.00353722   -0.01186715    0.00000000
     atom    7 type  1   force =     0.00518524   -0.00296860    0.00000000
     atom    8 type  1   force =     0.00000473   -0.00000526    0.00000000
     atom    9 type  1   force =    -0.00318413    0.00183183    0.00000000
     atom   10 type  1   force =    -0.00001328    0.00001750    0.00000000
     atom   11 type  1   force =     0.00316800    0.00183553    0.00000000
     atom   12 type  1   force =     0.00852533    0.00900311    0.00000000
     atom   13 type  1   force =     0.01492208   -0.00862175    0.00000000
     atom   14 type  1   force =    -0.00519418   -0.00297199    0.00000000
     atom   15 type  1   force =     0.00354932   -0.01185356    0.00000000
     atom   16 type  1   force =    -0.00000263    0.01719823    0.00000000
     atom   17 type  1   force =    -0.00849263    0.00901782    0.00000000

     Total force =     0.044232     Total SCF correction =     0.000636


     Computing stress (Cartesian axis) and pressure

          total   stress  (Ry/bohr**3)                   (kbar)     P=   -1.55
  -0.00001584   0.00000000   0.00000000         -2.33      0.00      0.00
   0.00000000  -0.00001583   0.00000000          0.00     -2.33      0.00
   0.00000000   0.00000000  -0.00000002          0.00      0.00     -0.00


     number of scf cycles    =   6
     number of bfgs steps    =   5

     enthalpy old            =     -77.1758798326 Ry
     enthalpy new            =     -77.1828677730 Ry

     CASE: enthalpy_new < enthalpy_old

     new trust radius        =       0.1686249051 bohr
     new conv_thr            =       0.0000010000 Ry

     new unit-cell volume =  20670.06498 a.u.^3 (  3062.98757 Ang^3 )
     density =      0.27632 g/cm^3

CELL_PARAMETERS (alat= 25.26072511)
   0.994820444   0.000003096   0.000000000
  -0.497407541   0.861540841   0.000000000
   0.000000000   0.000000000   1.496177267

ATOMIC_POSITIONS (angstrom)
Al      -0.210963808   2.437463110   0.000000000
Al       2.226528438   1.315063077   0.000000000
Al       4.432786807   2.486914577   0.000000000
Al       6.639080138   1.315083295   0.000000000
Al      -2.216270397   6.396415438   0.000000000
Al       0.035592292   5.109654126   0.000000000
Al       2.153753513   6.434358001   0.000000000
Al       4.432793307   5.118524294   0.000000000
Al      -4.434155611  10.237916706   0.000000000
Al      -2.216246986   8.957385619   0.000000000
Al       0.001616379  10.237902024   0.000000000
Al       2.241860717   8.931112296   0.000000000
Al       9.076498779   2.437458355   0.000000000
Al       6.711815482   6.434352476   0.000000000
Al       8.829867761   5.109575164   0.000000000
Al       4.432745435  10.480727707   0.000000000
Al       6.623582314   8.931026888   0.000000000



     Writing output data file 14al_planar_2x2_vcr.save/
     NEW-OLD atomic charge density approx. for the potential

     negative rho (up, down):  3.530E-06 0.000E+00
     extrapolated charge   50.79006, renormalised to   51.00000

     total cpu time spent up to now is      590.4 secs

     Self-consistent Calculation

     iteration #  1     ecut=    80.00 Ry     beta= 0.40
     Davidson diagonalization with overlap
     ethr =  1.00E-06,  avg # of iterations =  9.0

     negative rho (up, down):  1.948E-06 0.000E+00

     total cpu time spent up to now is      601.5 secs

     total energy              =     -77.18566644 Ry
     Harris-Foulkes estimate   =     -78.20856674 Ry
     estimated scf accuracy    <       0.00914287 Ry

     iteration #  2     ecut=    80.00 Ry     beta= 0.40
     Davidson diagonalization with overlap
     ethr =  1.79E-05,  avg # of iterations = 11.0

     negative rho (up, down):  1.664E-06 0.000E+00

     total cpu time spent up to now is      608.3 secs

     total energy              =     -77.18605989 Ry
     Harris-Foulkes estimate   =     -77.19689876 Ry
     estimated scf accuracy    <       0.06065333 Ry

     iteration #  3     ecut=    80.00 Ry     beta= 0.40
     Davidson diagonalization with overlap
     ethr =  1.79E-05,  avg # of iterations =  4.0

     negative rho (up, down):  1.382E-06 0.000E+00

     total cpu time spent up to now is      614.0 secs

     total energy              =     -77.19036154 Ry
     Harris-Foulkes estimate   =     -77.19070984 Ry
     estimated scf accuracy    <       0.00271802 Ry

     iteration #  4     ecut=    80.00 Ry     beta= 0.40
     Davidson diagonalization with overlap
     ethr =  5.33E-06,  avg # of iterations =  3.0

     negative rho (up, down):  1.040E-06 0.000E+00

     total cpu time spent up to now is      618.8 secs

     total energy              =     -77.19032129 Ry
     Harris-Foulkes estimate   =     -77.19052577 Ry
     estimated scf accuracy    <       0.00153351 Ry

     iteration #  5     ecut=    80.00 Ry     beta= 0.40
     Davidson diagonalization with overlap
     ethr =  3.01E-06,  avg # of iterations =  1.0

     negative rho (up, down):  1.211E-07 0.000E+00

     total cpu time spent up to now is      623.2 secs

     total energy              =     -77.19009515 Ry
     Harris-Foulkes estimate   =     -77.19041082 Ry
     estimated scf accuracy    <       0.00105677 Ry

     iteration #  6     ecut=    80.00 Ry     beta= 0.40
     Davidson diagonalization with overlap
     ethr =  2.07E-06,  avg # of iterations =  3.0

     negative rho (up, down):  5.288E-08 0.000E+00

     total cpu time spent up to now is      628.5 secs

     total energy              =     -77.19027544 Ry
     Harris-Foulkes estimate   =     -77.19035588 Ry
     estimated scf accuracy    <       0.00051111 Ry

     iteration #  7     ecut=    80.00 Ry     beta= 0.40
     Davidson diagonalization with overlap
     ethr =  1.00E-06,  avg # of iterations =  1.0

     negative rho (up, down):  4.348E-08 0.000E+00

     total cpu time spent up to now is      632.7 secs

     total energy              =     -77.19030325 Ry
     Harris-Foulkes estimate   =     -77.19032885 Ry
     estimated scf accuracy    <       0.00013575 Ry

     iteration #  8     ecut=    80.00 Ry     beta= 0.40
     Davidson diagonalization with overlap
     ethr =  2.66E-07,  avg # of iterations =  4.0

     negative rho (up, down):  2.926E-08 0.000E+00

     total cpu time spent up to now is      637.6 secs

     total energy              =     -77.19029959 Ry
     Harris-Foulkes estimate   =     -77.19031310 Ry
     estimated scf accuracy    <       0.00007474 Ry

     iteration #  9     ecut=    80.00 Ry     beta= 0.40
     Davidson diagonalization with overlap
     ethr =  1.47E-07,  avg # of iterations =  3.0

     negative rho (up, down):  1.116E-08 0.000E+00

     total cpu time spent up to now is      642.1 secs

     total energy              =     -77.19029462 Ry
     Harris-Foulkes estimate   =     -77.19030584 Ry
     estimated scf accuracy    <       0.00003768 Ry

     iteration # 10     ecut=    80.00 Ry     beta= 0.40
     Davidson diagonalization with overlap
     ethr =  7.39E-08,  avg # of iterations = 17.0

     negative rho (up, down):  1.307E-08 0.000E+00

     total cpu time spent up to now is      649.4 secs

     total energy              =     -77.19089874 Ry
     Harris-Foulkes estimate   =     -77.19090448 Ry
     estimated scf accuracy    <       0.00042117 Ry

     iteration # 11     ecut=    80.00 Ry     beta= 0.40
     Davidson diagonalization with overlap
     ethr =  7.39E-08,  avg # of iterations =  1.0

     negative rho (up, down):  4.201E-08 0.000E+00

     total cpu time spent up to now is      653.9 secs

     total energy              =     -77.19088814 Ry
     Harris-Foulkes estimate   =     -77.19089912 Ry
     estimated scf accuracy    <       0.00039715 Ry

     iteration # 12     ecut=    80.00 Ry     beta= 0.40
     Davidson diagonalization with overlap
     ethr =  7.39E-08,  avg # of iterations =  1.0

     negative rho (up, down):  1.776E-08 0.000E+00

     total cpu time spent up to now is      658.3 secs

     total energy              =     -77.19086482 Ry
     Harris-Foulkes estimate   =     -77.19088899 Ry
     estimated scf accuracy    <       0.00034902 Ry

     iteration # 13     ecut=    80.00 Ry     beta= 0.40
     Davidson diagonalization with overlap
     ethr =  7.39E-08,  avg # of iterations =  3.0

     negative rho (up, down):  3.129E-08 0.000E+00

     total cpu time spent up to now is      663.0 secs

     total energy              =     -77.19086552 Ry
     Harris-Foulkes estimate   =     -77.19086720 Ry
     estimated scf accuracy    <       0.00023648 Ry

     iteration # 14     ecut=    80.00 Ry     beta= 0.40
     Davidson diagonalization with overlap
     ethr =  7.39E-08,  avg # of iterations =  1.0

     negative rho (up, down):  2.251E-08 0.000E+00

     total cpu time spent up to now is      667.4 secs

     total energy              =     -77.19085486 Ry
     Harris-Foulkes estimate   =     -77.19086628 Ry
     estimated scf accuracy    <       0.00023038 Ry

     iteration # 15     ecut=    80.00 Ry     beta= 0.40
     Davidson diagonalization with overlap
     ethr =  7.39E-08,  avg # of iterations =  1.0

     negative rho (up, down):  1.676E-08 0.000E+00

     total cpu time spent up to now is      671.8 secs

     total energy              =     -77.19083844 Ry
     Harris-Foulkes estimate   =     -77.19085565 Ry
     estimated scf accuracy    <       0.00017877 Ry

     iteration # 16     ecut=    80.00 Ry     beta= 0.40
     Davidson diagonalization with overlap
     ethr =  7.39E-08,  avg # of iterations =  1.0

     total cpu time spent up to now is      676.2 secs

     total energy              =     -77.19081718 Ry
     Harris-Foulkes estimate   =     -77.19084001 Ry
     estimated scf accuracy    <       0.00010589 Ry

     iteration # 17     ecut=    80.00 Ry     beta= 0.40
     Davidson diagonalization with overlap
     ethr =  7.39E-08,  avg # of iterations =  4.0

     total cpu time spent up to now is      681.4 secs

     total energy              =     -77.19082159 Ry
     Harris-Foulkes estimate   =     -77.19082377 Ry
     estimated scf accuracy    <       0.00001581 Ry

     iteration # 18     ecut=    80.00 Ry     beta= 0.40
     Davidson diagonalization with overlap
     ethr =  3.10E-08,  avg # of iterations =  4.0

     total cpu time spent up to now is      686.3 secs

     total energy              =     -77.19082104 Ry
     Harris-Foulkes estimate   =     -77.19082287 Ry
     estimated scf accuracy    <       0.00000627 Ry

     iteration # 19     ecut=    80.00 Ry     beta= 0.40
     Davidson diagonalization with overlap
     ethr =  1.23E-08,  avg # of iterations =  4.0

     total cpu time spent up to now is      691.9 secs

     total energy              =     -77.19082235 Ry
     Harris-Foulkes estimate   =     -77.19082263 Ry
     estimated scf accuracy    <       0.00000137 Ry

     iteration # 20     ecut=    80.00 Ry     beta= 0.40
     Davidson diagonalization with overlap
     ethr =  2.68E-09,  avg # of iterations =  3.0

     total cpu time spent up to now is      696.8 secs

     End of self-consistent calculation

          k = 0.0000 0.0000 0.0000 (252395 PWs)   bands (ev):

    -9.9939  -9.1253  -9.1251  -9.1013  -8.9845  -8.9844  -8.4030  -7.4896
    -7.4328  -7.4327  -6.8937  -5.8297  -5.7777  -5.7776  -5.6603  -5.6602
    -4.8357  -4.8357  -4.1078  -3.9930  -3.3112  -3.2020  -3.2020  -3.1159
    -3.1158  -3.1042  -3.0912  -3.0423  -3.0423  -2.6451  -2.6451

     the Fermi energy is    -3.0629 ev

!    total energy              =     -77.19082232 Ry
     Harris-Foulkes estimate   =     -77.19082256 Ry
     estimated scf accuracy    <       0.00000042 Ry

     The total energy is the sum of the following terms:

     one-electron contribution =    -270.30310361 Ry
     hartree contribution      =     139.77407461 Ry
     xc contribution           =     -33.43107023 Ry
     ewald contribution        =      86.88037671 Ry
     smearing contrib. (-TS)   =      -0.11109979 Ry

     convergence has been achieved in  20 iterations

     Forces acting on atoms (cartesian axes, Ry/au):

     atom    1 type  1   force =    -0.00912904   -0.00527368    0.00000000
     atom    2 type  1   force =    -0.01983501    0.00132241    0.00000000
     atom    3 type  1   force =     0.00001698    0.01293391    0.00000000
     atom    4 type  1   force =     0.01982959    0.00130894    0.00000000
     atom    5 type  1   force =    -0.00004101   -0.00556927    0.00000000
     atom    6 type  1   force =    -0.00871954   -0.01781942    0.00000000
     atom    7 type  1   force =     0.01118855   -0.00645337    0.00000000
     atom    8 type  1   force =    -0.00000671    0.00000882    0.00000000
     atom    9 type  1   force =    -0.00483421    0.00277335    0.00000000
     atom   10 type  1   force =     0.00000482    0.00000111    0.00000000
     atom   11 type  1   force =     0.00480562    0.00281369    0.00000000
     atom   12 type  1   force =     0.01108565    0.01646290    0.00000000
     atom   13 type  1   force =     0.00912336   -0.00526428    0.00000000
     atom   14 type  1   force =    -0.01118630   -0.00646538    0.00000000
     atom   15 type  1   force =     0.00876608   -0.01781503    0.00000000
     atom   16 type  1   force =    -0.00000066    0.01053836    0.00000000
     atom   17 type  1   force =    -0.01106819    0.01649695    0.00000000

     Total force =     0.057391     Total SCF correction =     0.000443


     Computing stress (Cartesian axis) and pressure

          total   stress  (Ry/bohr**3)                   (kbar)     P=   -1.91
  -0.00001951  -0.00000000   0.00000000         -2.87     -0.00      0.00
  -0.00000000  -0.00001953   0.00000000         -0.00     -2.87      0.00
   0.00000000   0.00000000   0.00000000          0.00      0.00      0.00


     number of scf cycles    =   7
     number of bfgs steps    =   6

     enthalpy old            =     -77.1828677730 Ry
     enthalpy new            =     -77.1908223158 Ry

     CASE: enthalpy_new < enthalpy_old

     new trust radius        =       0.2524175989 bohr
     new conv_thr            =       0.0000010000 Ry

     new unit-cell volume =  20528.13290 a.u.^3 (  3041.95541 Ang^3 )
     density =      0.27823 g/cm^3

CELL_PARAMETERS (alat= 25.26072511)
   0.991398552   0.000004741   0.000000000
  -0.495695170   0.858577456   0.000000000
   0.000000000   0.000000000   1.496177267

ATOMIC_POSITIONS (angstrom)
Al      -0.325485564   2.362536321   0.000000000
Al       2.209710319   1.329161976   0.000000000
Al       4.417582155   2.449093675   0.000000000
Al       6.625464540   1.329171159   0.000000000
Al      -2.208635904   6.369609064   0.000000000
Al       0.046944499   5.074920978   0.000000000
Al       2.121016326   6.426875606   0.000000000
Al       4.417547987   5.100939838   0.000000000
Al      -4.423053775  10.205108575   0.000000000
Al      -2.208569643   8.926553475   0.000000000
Al       0.005813906  10.205105759   0.000000000
Al       2.254771223   8.899069343   0.000000000
Al       9.160549215   2.362511881   0.000000000
Al       6.714093313   6.426850644   0.000000000
Al       8.788007315   5.074768430   0.000000000
Al       4.417478279  10.577772444   0.000000000
Al       6.580097591   8.898944998   0.000000000



     Writing output data file 14al_planar_2x2_vcr.save/
     NEW-OLD atomic charge density approx. for the potential

     negative rho (up, down):  7.396E-06 0.000E+00
     extrapolated charge   50.64767, renormalised to   51.00000

     total cpu time spent up to now is      732.6 secs

     Self-consistent Calculation

     iteration #  1     ecut=    80.00 Ry     beta= 0.40
     Davidson diagonalization with overlap
     ethr =  1.00E-06,  avg # of iterations = 10.0

     negative rho (up, down):  4.199E-06 0.000E+00

     total cpu time spent up to now is      744.0 secs

     total energy              =     -77.18613485 Ry
     Harris-Foulkes estimate   =     -78.91194314 Ry
     estimated scf accuracy    <       0.02005258 Ry

     iteration #  2     ecut=    80.00 Ry     beta= 0.40
     Davidson diagonalization with overlap
     ethr =  3.93E-05,  avg # of iterations =  8.0

     negative rho (up, down):  3.619E-06 0.000E+00

     total cpu time spent up to now is      751.0 secs

     total energy              =     -77.18814206 Ry
     Harris-Foulkes estimate   =     -77.21691604 Ry
     estimated scf accuracy    <       0.17616278 Ry

     iteration #  3     ecut=    80.00 Ry     beta= 0.40
     Davidson diagonalization with overlap
     ethr =  3.93E-05,  avg # of iterations =  4.0

     negative rho (up, down):  2.992E-06 0.000E+00

     total cpu time spent up to now is      756.7 secs

     total energy              =     -77.19959561 Ry
     Harris-Foulkes estimate   =     -77.20021032 Ry
     estimated scf accuracy    <       0.00669158 Ry

     iteration #  4     ecut=    80.00 Ry     beta= 0.40
     Davidson diagonalization with overlap
     ethr =  1.31E-05,  avg # of iterations =  2.0

     negative rho (up, down):  1.501E-06 0.000E+00

     total cpu time spent up to now is      761.3 secs

     total energy              =     -77.19883633 Ry
     Harris-Foulkes estimate   =     -77.19978077 Ry
     estimated scf accuracy    <       0.00452875 Ry

     iteration #  5     ecut=    80.00 Ry     beta= 0.40
     Davidson diagonalization with overlap
     ethr =  8.88E-06,  avg # of iterations =  3.0

     negative rho (up, down):  2.253E-07 0.000E+00

     total cpu time spent up to now is      765.8 secs

     total energy              =     -77.19863362 Ry
     Harris-Foulkes estimate   =     -77.19930620 Ry
     estimated scf accuracy    <       0.00278393 Ry

     iteration #  6     ecut=    80.00 Ry     beta= 0.40
     Davidson diagonalization with overlap
     ethr =  5.46E-06,  avg # of iterations =  4.0

     negative rho (up, down):  1.673E-07 0.000E+00

     total cpu time spent up to now is      770.8 secs

     total energy              =     -77.19909843 Ry
     Harris-Foulkes estimate   =     -77.19916283 Ry
     estimated scf accuracy    <       0.00040225 Ry

     iteration #  7     ecut=    80.00 Ry     beta= 0.40
     Davidson diagonalization with overlap
     ethr =  7.89E-07,  avg # of iterations =  4.0

     negative rho (up, down):  1.254E-07 0.000E+00

     total cpu time spent up to now is      776.7 secs

     total energy              =     -77.19912345 Ry
     Harris-Foulkes estimate   =     -77.19921025 Ry
     estimated scf accuracy    <       0.00057005 Ry

     iteration #  8     ecut=    80.00 Ry     beta= 0.40
     Davidson diagonalization with overlap
     ethr =  7.89E-07,  avg # of iterations =  1.0

     negative rho (up, down):  6.358E-08 0.000E+00

     total cpu time spent up to now is      781.1 secs

     total energy              =     -77.19910676 Ry
     Harris-Foulkes estimate   =     -77.19914241 Ry
     estimated scf accuracy    <       0.00020231 Ry

     iteration #  9     ecut=    80.00 Ry     beta= 0.40
     Davidson diagonalization with overlap
     ethr =  3.97E-07,  avg # of iterations =  3.0

     negative rho (up, down):  3.107E-08 0.000E+00

     total cpu time spent up to now is      785.8 secs

     total energy              =     -77.19911199 Ry
     Harris-Foulkes estimate   =     -77.19912195 Ry
     estimated scf accuracy    <       0.00004906 Ry

     iteration # 10     ecut=    80.00 Ry     beta= 0.40
     Davidson diagonalization with overlap
     ethr =  9.62E-08,  avg # of iterations =  5.0

     negative rho (up, down):  3.430E-08 0.000E+00

     total cpu time spent up to now is      792.4 secs

     total energy              =     -77.19912363 Ry
     Harris-Foulkes estimate   =     -77.19912564 Ry
     estimated scf accuracy    <       0.00001386 Ry

     iteration # 11     ecut=    80.00 Ry     beta= 0.40
     Davidson diagonalization with overlap
     ethr =  2.72E-08,  avg # of iterations =  4.0

     negative rho (up, down):  1.248E-08 0.000E+00

     total cpu time spent up to now is      798.0 secs

     total energy              =     -77.19912325 Ry
     Harris-Foulkes estimate   =     -77.19912514 Ry
     estimated scf accuracy    <       0.00001170 Ry

     iteration # 12     ecut=    80.00 Ry     beta= 0.40
     Davidson diagonalization with overlap
     ethr =  2.29E-08,  avg # of iterations =  2.0

     total cpu time spent up to now is      802.9 secs

     total energy              =     -77.19912365 Ry
     Harris-Foulkes estimate   =     -77.19912415 Ry
     estimated scf accuracy    <       0.00000373 Ry

     iteration # 13     ecut=    80.00 Ry     beta= 0.40
     Davidson diagonalization with overlap
     ethr =  7.32E-09,  avg # of iterations =  4.0

     total cpu time spent up to now is      807.7 secs

     End of self-consistent calculation

          k = 0.0000 0.0000 0.0000 (252395 PWs)   bands (ev):

   -10.0306  -9.1746  -9.1702  -9.1066  -8.9874  -8.9860  -8.4885  -7.5045
    -7.4383  -7.4353  -7.0308  -5.8331  -5.8016  -5.8010  -5.6935  -5.6879
    -4.9029  -4.9012  -4.4671  -4.0160  -3.3582  -3.1876  -3.1852  -3.1421
    -3.1396  -3.0844  -3.0375  -3.0372  -3.0235  -2.6944  -2.6411

     the Fermi energy is    -3.0594 ev

!    total energy              =     -77.19912331 Ry
     Harris-Foulkes estimate   =     -77.19912404 Ry
     estimated scf accuracy    <       0.00000090 Ry

     The total energy is the sum of the following terms:

     one-electron contribution =    -271.23783914 Ry
     hartree contribution      =     140.13677152 Ry
     xc contribution           =     -33.38036691 Ry
     ewald contribution        =      87.39731131 Ry
     smearing contrib. (-TS)   =      -0.11500009 Ry

     convergence has been achieved in  13 iterations

     Forces acting on atoms (cartesian axes, Ry/au):

     atom    1 type  1   force =    -0.00292405   -0.00217133    0.00000000
     atom    2 type  1   force =    -0.02910886    0.00031519    0.00000000
     atom    3 type  1   force =     0.00016232    0.01925228    0.00000000
     atom    4 type  1   force =     0.02890828    0.00062068    0.00000000
     atom    5 type  1   force =     0.00049120   -0.00795188    0.00000000
     atom    6 type  1   force =    -0.01521856   -0.02494990    0.00000000
     atom    7 type  1   force =     0.01835753   -0.01082395    0.00000000
     atom    8 type  1   force =    -0.00041668    0.00083686    0.00000000
     atom    9 type  1   force =    -0.00558660    0.00244347    0.00000000
     atom   10 type  1   force =    -0.00088955    0.00183840    0.00000000
     atom   11 type  1   force =     0.00651079    0.00243630    0.00000000
     atom   12 type  1   force =     0.01379074    0.02602732    0.00000000
     atom   13 type  1   force =     0.00287319   -0.00192922    0.00000000
     atom   14 type  1   force =    -0.01750695   -0.01051200    0.00000000
     atom   15 type  1   force =     0.01448501   -0.02511577    0.00000000
     atom   16 type  1   force =     0.00018709    0.00386991    0.00000000
     atom   17 type  1   force =    -0.01411489    0.02581364    0.00000000

     Total force =     0.080917     Total SCF correction =     0.000799


     Computing stress (Cartesian axis) and pressure

          total   stress  (Ry/bohr**3)                   (kbar)     P=   -2.53
  -0.00002472  -0.00000049   0.00000000         -3.64     -0.07      0.00
  -0.00000049  -0.00002675   0.00000000         -0.07     -3.93      0.00
   0.00000000   0.00000000  -0.00000003          0.00      0.00     -0.00


     number of scf cycles    =   8
     number of bfgs steps    =   7

     enthalpy old            =     -77.1908223158 Ry
     enthalpy new            =     -77.1991233109 Ry

     CASE: enthalpy_new < enthalpy_old

     new trust radius        =       0.3773235864 bohr
     new conv_thr            =       0.0000010000 Ry

     new unit-cell volume =  20292.03762 a.u.^3 (  3006.96970 Ang^3 )
     density =      0.28147 g/cm^3

CELL_PARAMETERS (alat= 25.26072511)
   0.985731924  -0.000017692   0.000000000
  -0.492881284   0.853593006   0.000000000
   0.000000000   0.000000000   1.496177267

ATOMIC_POSITIONS (angstrom)
Al      -0.495150395   2.249280556   0.000000000
Al       2.172205203   1.348636272   0.000000000
Al       4.392500162   2.395860504   0.000000000
Al       6.612293580   1.348854600   0.000000000
Al      -2.195587667   6.322498818   0.000000000
Al       0.056564215   5.010826573   0.000000000
Al       2.076921077   6.407575377   0.000000000
Al       4.391728250   5.072076789   0.000000000
Al      -4.405351665  10.149244277   0.000000000
Al      -2.197042965   8.876587646   0.000000000
Al       0.013951227  10.149101237   0.000000000
Al       2.276413432   8.856273809   0.000000000
Al       9.279586204   2.249230135   0.000000000
Al       6.708337214   6.407751800   0.000000000
Al       8.726776497   5.010148943   0.000000000
Al       4.392128912  10.714634784   0.000000000
Al       6.507003314   8.855713885   0.000000000



     Writing output data file 14al_planar_2x2_vcr.save/
     NEW-OLD atomic charge density approx. for the potential

     negative rho (up, down):  1.690E-05 0.000E+00
     extrapolated charge   50.40711, renormalised to   51.00000

     total cpu time spent up to now is      843.5 secs

     Self-consistent Calculation

     iteration #  1     ecut=    80.00 Ry     beta= 0.40
     Davidson diagonalization with overlap
     ethr =  1.00E-06,  avg # of iterations = 16.0

     negative rho (up, down):  9.867E-06 0.000E+00

     total cpu time spent up to now is      856.8 secs

     total energy              =     -77.19343201 Ry
     Harris-Foulkes estimate   =     -80.11048197 Ry
     estimated scf accuracy    <       0.02558454 Ry

     iteration #  2     ecut=    80.00 Ry     beta= 0.40
     Davidson diagonalization with overlap
     ethr =  5.02E-05,  avg # of iterations =  5.0

     negative rho (up, down):  8.625E-06 0.000E+00

     total cpu time spent up to now is      864.0 secs

     total energy              =     -77.19969439 Ry
     Harris-Foulkes estimate   =     -77.23411801 Ry
     estimated scf accuracy    <       0.21692002 Ry

     iteration #  3     ecut=    80.00 Ry     beta= 0.40
     Davidson diagonalization with overlap
     ethr =  5.02E-05,  avg # of iterations =  4.0

     negative rho (up, down):  6.875E-06 0.000E+00

     total cpu time spent up to now is      870.3 secs

     total energy              =     -77.21307605 Ry
     Harris-Foulkes estimate   =     -77.21423426 Ry
[...]
     estimated scf accuracy    <       0.00008823 Ry

     iteration # 55     ecut=    80.00 Ry     beta= 0.40
     Davidson diagonalization with overlap
     c_bands:  1 eigenvalues not converged
     ethr =  3.62E-08,  avg # of iterations = 20.0

     total cpu time spent up to now is     1137.1 secs

     total energy              =     -77.21239690 Ry
     Harris-Foulkes estimate   =     -77.21239536 Ry
     estimated scf accuracy    <       0.00006210 Ry

     iteration # 56     ecut=    80.00 Ry     beta= 0.40
     Davidson diagonalization with overlap
     ethr =  3.62E-08,  avg # of iterations =  4.0

     total cpu time spent up to now is     1141.7 secs

     total energy              =     -77.21240582 Ry
     Harris-Foulkes estimate   =     -77.21239708 Ry
     estimated scf accuracy    <       0.00006744 Ry

     iteration # 57     ecut=    80.00 Ry     beta= 0.40
     Davidson diagonalization with overlap
     ethr =  3.62E-08,  avg # of iterations = 20.0

     total cpu time spent up to now is     1147.7 secs

     total energy              =     -77.21241209 Ry
     Harris-Foulkes estimate   =     -77.21241334 Ry
     estimated scf accuracy    <       0.00020972 Ry

     iteration # 58     ecut=    80.00 Ry     beta= 0.40
     Davidson diagonalization with overlap
     ethr =  3.62E-08,  avg # of iterations =  1.0

     total cpu time spent up to now is     1152.1 secs

     total energy              =     -77.21240945 Ry
     Harris-Foulkes estimate   =     -77.21241269 Ry
     estimated scf accuracy    <       0.00020869 Ry

     iteration # 59     ecut=    80.00 Ry     beta= 0.40
     Davidson diagonalization with overlap
     ethr =  3.62E-08,  avg # of iterations =  1.0

     total cpu time spent up to now is     1156.5 secs

     total energy              =     -77.21240215 Ry
     Harris-Foulkes estimate   =     -77.21240960 Ry
     estimated scf accuracy    <       0.00019871 Ry

     iteration # 60     ecut=    80.00 Ry     beta= 0.40
     Davidson diagonalization with overlap
     ethr =  3.62E-08,  avg # of iterations =  1.0

     total cpu time spent up to now is     1160.9 secs

     total energy              =     -77.21239948 Ry
     Harris-Foulkes estimate   =     -77.21240351 Ry
     estimated scf accuracy    <       0.00016967 Ry

     iteration # 61     ecut=    80.00 Ry     beta= 0.40
     Davidson diagonalization with overlap
     ethr =  3.62E-08,  avg # of iterations =  1.0

     total cpu time spent up to now is     1165.2 secs

     total energy              =     -77.21239193 Ry
     Harris-Foulkes estimate   =     -77.21239977 Ry
     estimated scf accuracy    <       0.00015388 Ry

     iteration # 62     ecut=    80.00 Ry     beta= 0.40
     Davidson diagonalization with overlap
     ethr =  3.62E-08,  avg # of iterations = 20.0

     total cpu time spent up to now is     1171.6 secs

     total energy              =     -77.21236353 Ry
     Harris-Foulkes estimate   =     -77.21241297 Ry
     estimated scf accuracy    <       0.00046240 Ry

     iteration # 63     ecut=    80.00 Ry     beta= 0.40
     Davidson diagonalization with overlap
     c_bands:  1 eigenvalues not converged
     ethr =  3.62E-08,  avg # of iterations = 20.0

     total cpu time spent up to now is     1178.0 secs

     total energy              =     -77.21238242 Ry
     Harris-Foulkes estimate   =     -77.21239852 Ry
     estimated scf accuracy    <       0.00007597 Ry

     iteration # 64     ecut=    80.00 Ry     beta= 0.40
     Davidson diagonalization with overlap
     ethr =  3.62E-08,  avg # of iterations =  4.0

     total cpu time spent up to now is     1182.8 secs

     total energy              =     -77.21238821 Ry
     Harris-Foulkes estimate   =     -77.21238504 Ry
     estimated scf accuracy    <       0.00002109 Ry

     iteration # 65     ecut=    80.00 Ry     beta= 0.40
     Davidson diagonalization with overlap
     ethr =  3.62E-08,  avg # of iterations =  1.0

     total cpu time spent up to now is     1187.2 secs

     total energy              =     -77.21239005 Ry
     Harris-Foulkes estimate   =     -77.21238883 Ry
     estimated scf accuracy    <       0.00003315 Ry

     iteration # 66     ecut=    80.00 Ry     beta= 0.40
     Davidson diagonalization with overlap
     ethr =  3.62E-08,  avg # of iterations =  1.0

     total cpu time spent up to now is     1191.6 secs

     total energy              =     -77.21238879 Ry
     Harris-Foulkes estimate   =     -77.21239024 Ry
     estimated scf accuracy    <       0.00003849 Ry

     iteration # 67     ecut=    80.00 Ry     beta= 0.40
     Davidson diagonalization with overlap
     ethr =  3.62E-08,  avg # of iterations =  1.0

     total cpu time spent up to now is     1196.0 secs

     total energy              =     -77.21238721 Ry
     Harris-Foulkes estimate   =     -77.21238888 Ry
     estimated scf accuracy    <       0.00003352 Ry

     iteration # 68     ecut=    80.00 Ry     beta= 0.40
     Davidson diagonalization with overlap
     ethr =  3.62E-08,  avg # of iterations =  1.0

     total cpu time spent up to now is     1200.4 secs

     total energy              =     -77.21238507 Ry
     Harris-Foulkes estimate   =     -77.21238732 Ry
     estimated scf accuracy    <       0.00002650 Ry

     iteration # 69     ecut=    80.00 Ry     beta= 0.40
     Davidson diagonalization with overlap
     ethr =  3.62E-08,  avg # of iterations =  1.0

     total cpu time spent up to now is     1204.8 secs

     total energy              =     -77.21238223 Ry
     Harris-Foulkes estimate   =     -77.21238526 Ry
     estimated scf accuracy    <       0.00001706 Ry

     iteration # 70     ecut=    80.00 Ry     beta= 0.40
     Davidson diagonalization with overlap
     ethr =  3.35E-08,  avg # of iterations =  1.0

     total cpu time spent up to now is     1209.2 secs

     total energy              =     -77.21238274 Ry
     Harris-Foulkes estimate   =     -77.21238278 Ry
     estimated scf accuracy    <       0.00000530 Ry

     iteration # 71     ecut=    80.00 Ry     beta= 0.40
     Davidson diagonalization with overlap
     ethr =  1.04E-08,  avg # of iterations = 18.0

     total cpu time spent up to now is     1215.8 secs

     total energy              =     -77.21240225 Ry
     Harris-Foulkes estimate   =     -77.21242213 Ry
     estimated scf accuracy    <       0.00042367 Ry

     iteration # 72     ecut=    80.00 Ry     beta= 0.40
     Davidson diagonalization with overlap
     ethr =  1.04E-08,  avg # of iterations =  2.0

     total cpu time spent up to now is     1220.4 secs

     total energy              =     -77.21240429 Ry
     Harris-Foulkes estimate   =     -77.21240292 Ry
     estimated scf accuracy    <       0.00033722 Ry

     iteration # 73     ecut=    80.00 Ry     beta= 0.40
     Davidson diagonalization with overlap
     ethr =  1.04E-08,  avg # of iterations =  1.0

     total cpu time spent up to now is     1224.8 secs

     total energy              =     -77.21240181 Ry
     Harris-Foulkes estimate   =     -77.21240436 Ry
     estimated scf accuracy    <       0.00034391 Ry

     iteration # 74     ecut=    80.00 Ry     beta= 0.40
     Davidson diagonalization with overlap
     ethr =  1.04E-08,  avg # of iterations =  1.0

     total cpu time spent up to now is     1229.2 secs

     total energy              =     -77.21240159 Ry
     Harris-Foulkes estimate   =     -77.21240185 Ry
     estimated scf accuracy    <       0.00033189 Ry

     iteration # 75     ecut=    80.00 Ry     beta= 0.40
     Davidson diagonalization with overlap
     ethr =  1.04E-08,  avg # of iterations =  1.0

     total cpu time spent up to now is     1233.6 secs

     total energy              =     -77.21239837 Ry
     Harris-Foulkes estimate   =     -77.21240161 Ry
     estimated scf accuracy    <       0.00033139 Ry

     iteration # 76     ecut=    80.00 Ry     beta= 0.40
     Davidson diagonalization with overlap
     ethr =  1.04E-08,  avg # of iterations =  1.0

     total cpu time spent up to now is     1238.1 secs

     total energy              =     -77.21239265 Ry
     Harris-Foulkes estimate   =     -77.21239841 Ry
     estimated scf accuracy    <       0.00031584 Ry

     iteration # 77     ecut=    80.00 Ry     beta= 0.40
     Davidson diagonalization with overlap
     ethr =  1.04E-08,  avg # of iterations =  1.0

     total cpu time spent up to now is     1242.4 secs

     total energy              =     -77.21238853 Ry
     Harris-Foulkes estimate   =     -77.21239273 Ry
     estimated scf accuracy    <       0.00028976 Ry

     iteration # 78     ecut=    80.00 Ry     beta= 0.40
     Davidson diagonalization with overlap
     ethr =  1.04E-08,  avg # of iterations =  1.0

     total cpu time spent up to now is     1246.8 secs

     total energy              =     -77.21239711 Ry
     Harris-Foulkes estimate   =     -77.21238859 Ry
     estimated scf accuracy    <       0.00027082 Ry

     iteration # 79     ecut=    80.00 Ry     beta= 0.40
     Davidson diagonalization with overlap
     ethr =  1.04E-08,  avg # of iterations =  1.0

     total cpu time spent up to now is     1251.1 secs

     total energy              =     -77.21229910 Ry
     Harris-Foulkes estimate   =     -77.21239722 Ry
     estimated scf accuracy    <       0.00030471 Ry

     iteration # 80     ecut=    80.00 Ry     beta= 0.40
     Davidson diagonalization with overlap
     c_bands:  1 eigenvalues not converged
     ethr =  1.04E-08,  avg # of iterations = 20.0

     total cpu time spent up to now is     1261.6 secs

     total energy              =     -77.21244743 Ry
     Harris-Foulkes estimate   =     -77.21248659 Ry
     estimated scf accuracy    <       0.00060875 Ry

     iteration # 81     ecut=    80.00 Ry     beta= 0.40
     Davidson diagonalization with overlap
     ethr =  1.04E-08,  avg # of iterations = 11.0

     total cpu time spent up to now is     1268.6 secs

     total energy              =     -77.21245014 Ry
     Harris-Foulkes estimate   =     -77.21245922 Ry
     estimated scf accuracy    <       0.00042113 Ry

     iteration # 82     ecut=    80.00 Ry     beta= 0.40
     Davidson diagonalization with overlap
     ethr =  1.04E-08,  avg # of iterations =  1.0

     total cpu time spent up to now is     1273.0 secs

     total energy              =     -77.21246064 Ry
     Harris-Foulkes estimate   =     -77.21245030 Ry
     estimated scf accuracy    <       0.00038013 Ry

     iteration # 83     ecut=    80.00 Ry     beta= 0.40
     Davidson diagonalization with overlap
     ethr =  1.04E-08,  avg # of iterations =  1.0

     total cpu time spent up to now is     1277.3 secs

     total energy              =     -77.21247295 Ry
     Harris-Foulkes estimate   =     -77.21246078 Ry
     estimated scf accuracy    <       0.00042017 Ry

     iteration # 84     ecut=    80.00 Ry     beta= 0.40
     Davidson diagonalization with overlap
     ethr =  1.04E-08,  avg # of iterations =  1.0

     total cpu time spent up to now is     1281.6 secs

     total energy              =     -77.21251352 Ry
     Harris-Foulkes estimate   =     -77.21247327 Ry
     estimated scf accuracy    <       0.00047964 Ry

     iteration # 85     ecut=    80.00 Ry     beta= 0.40
     Davidson diagonalization with overlap
     ethr =  1.04E-08,  avg # of iterations = 11.0

     total cpu time spent up to now is     1289.1 secs

     total energy              =     -77.21241610 Ry
     Harris-Foulkes estimate   =     -77.21251643 Ry
     estimated scf accuracy    <       0.00073064 Ry

     iteration # 86     ecut=    80.00 Ry     beta= 0.40
     Davidson diagonalization with overlap
     c_bands:  1 eigenvalues not converged
     ethr =  1.04E-08,  avg # of iterations = 20.0

     total cpu time spent up to now is     1298.3 secs

     total energy              =     -77.21238432 Ry
     Harris-Foulkes estimate   =     -77.21242831 Ry
     estimated scf accuracy    <       0.00025923 Ry

     iteration # 87     ecut=    80.00 Ry     beta= 0.40
     Davidson diagonalization with overlap
     c_bands:  1 eigenvalues not converged
     ethr =  1.04E-08,  avg # of iterations = 20.0

     total cpu time spent up to now is     1306.9 secs

     total energy              =     -77.21238269 Ry
     Harris-Foulkes estimate   =     -77.21239178 Ry
     estimated scf accuracy    <       0.00005915 Ry

     iteration # 88     ecut=    80.00 Ry     beta= 0.40
     Davidson diagonalization with overlap
     c_bands:  1 eigenvalues not converged
     ethr =  1.04E-08,  avg # of iterations = 20.0

     total cpu time spent up to now is     1314.1 secs

     total energy              =     -77.21242679 Ry
     Harris-Foulkes estimate   =     -77.21240315 Ry
     estimated scf accuracy    <       0.00026051 Ry

     iteration # 89     ecut=    80.00 Ry     beta= 0.40
     Davidson diagonalization with overlap
     ethr =  1.04E-08,  avg # of iterations = 18.0

     total cpu time spent up to now is     1321.4 secs

     total energy              =     -77.21240277 Ry
     Harris-Foulkes estimate   =     -77.21243177 Ry
     estimated scf accuracy    <       0.00048692 Ry

     iteration # 90     ecut=    80.00 Ry     beta= 0.40
     Davidson diagonalization with overlap
     ethr =  1.04E-08,  avg # of iterations = 19.0

     total cpu time spent up to now is     1328.2 secs

     total energy              =     -77.21240241 Ry
     Harris-Foulkes estimate   =     -77.21240555 Ry
     estimated scf accuracy    <       0.00029256 Ry

     iteration # 91     ecut=    80.00 Ry     beta= 0.40
     Davidson diagonalization with overlap
     ethr =  1.04E-08,  avg # of iterations =  1.0

     total cpu time spent up to now is     1332.5 secs

     total energy              =     -77.21238300 Ry
     Harris-Foulkes estimate   =     -77.21240247 Ry
     estimated scf accuracy    <       0.00027853 Ry

     iteration # 92     ecut=    80.00 Ry     beta= 0.40
     Davidson diagonalization with overlap
     c_bands:  1 eigenvalues not converged
     ethr =  1.04E-08,  avg # of iterations = 20.0

     total cpu time spent up to now is     1340.1 secs

     total energy              =     -77.21239361 Ry
     Harris-Foulkes estimate   =     -77.21239426 Ry
     estimated scf accuracy    <       0.00005042 Ry

     iteration # 93     ecut=    80.00 Ry     beta= 0.40
     Davidson diagonalization with overlap
     ethr =  1.04E-08,  avg # of iterations =  1.0

     total cpu time spent up to now is     1344.6 secs

     total energy              =     -77.21239426 Ry
     Harris-Foulkes estimate   =     -77.21239368 Ry
     estimated scf accuracy    <       0.00004774 Ry

     iteration # 94     ecut=    80.00 Ry     beta= 0.40
     Davidson diagonalization with overlap
     ethr =  1.04E-08,  avg # of iterations =  1.0

     total cpu time spent up to now is     1349.0 secs

     total energy              =     -77.21239464 Ry
     Harris-Foulkes estimate   =     -77.21239430 Ry
     estimated scf accuracy    <       0.00005040 Ry

     iteration # 95     ecut=    80.00 Ry     beta= 0.40
     Davidson diagonalization with overlap
     ethr =  1.04E-08,  avg # of iterations =  1.0

     total cpu time spent up to now is     1353.3 secs

     total energy              =     -77.21239227 Ry
     Harris-Foulkes estimate   =     -77.21239466 Ry
     estimated scf accuracy    <       0.00005226 Ry

     iteration # 96     ecut=    80.00 Ry     beta= 0.40
     Davidson diagonalization with overlap
     ethr =  1.04E-08,  avg # of iterations =  1.0

     total cpu time spent up to now is     1357.6 secs

     total energy              =     -77.21239315 Ry
     Harris-Foulkes estimate   =     -77.21239254 Ry
     estimated scf accuracy    <       0.00004362 Ry

     iteration # 97     ecut=    80.00 Ry     beta= 0.40
     Davidson diagonalization with overlap
     ethr =  1.04E-08,  avg # of iterations =  1.0

     total cpu time spent up to now is     1362.0 secs

     total energy              =     -77.21238982 Ry
     Harris-Foulkes estimate   =     -77.21239334 Ry
     estimated scf accuracy    <       0.00004966 Ry

     iteration # 98     ecut=    80.00 Ry     beta= 0.40
     Davidson diagonalization with overlap
     c_bands:  1 eigenvalues not converged
     ethr =  1.04E-08,  avg # of iterations = 20.0

     total cpu time spent up to now is     1368.6 secs

     total energy              =     -77.21230442 Ry
     Harris-Foulkes estimate   =     -77.21239865 Ry
     estimated scf accuracy    <       0.00027229 Ry

     iteration # 99     ecut=    80.00 Ry     beta= 0.40
     Davidson diagonalization with overlap
     c_bands:  1 eigenvalues not converged
     ethr =  1.04E-08,  avg # of iterations = 20.0

     total cpu time spent up to now is     1379.9 secs

     total energy              =     -77.21238340 Ry
     Harris-Foulkes estimate   =     -77.21251149 Ry
     estimated scf accuracy    <       0.00095388 Ry

     iteration #100     ecut=    80.00 Ry     beta= 0.40
     Davidson diagonalization with overlap
     c_bands:  1 eigenvalues not converged
     ethr =  1.04E-08,  avg # of iterations = 20.0

     total cpu time spent up to now is     1389.5 secs

     total energy              =     -77.21239545 Ry
     Harris-Foulkes estimate   =     -77.21241269 Ry
     estimated scf accuracy    <       0.00019059 Ry

     End of self-consistent calculation

     convergence NOT achieved after 100 iterations: stopping

     Writing output data file 14al_planar_2x2_vcr.save/
 
     init_run     :     12.13s CPU     12.73s WALL (       1 calls)
     electrons    :   1044.72s CPU   1086.73s WALL (       9 calls)
     update_pot   :     99.38s CPU    100.02s WALL (       8 calls)
     forces       :     60.39s CPU     61.24s WALL (       8 calls)
     stress       :    124.23s CPU    126.72s WALL (       8 calls)

     Called by init_run:
     wfcinit      :      2.50s CPU      2.94s WALL (       1 calls)
     potinit      :      3.42s CPU      3.49s WALL (       1 calls)
     hinit0       :      5.51s CPU      5.57s WALL (       1 calls)

     Called by electrons:
     c_bands      :    815.32s CPU    838.66s WALL (     195 calls)
     sum_band     :    114.81s CPU    117.78s WALL (     195 calls)
     v_of_rho     :     92.07s CPU    102.40s WALL (     204 calls)
     mix_rho      :     23.21s CPU     27.49s WALL (     195 calls)

     Called by c_bands:
     init_us_2    :     15.80s CPU     16.13s WALL (     391 calls)
     cegterg      :    661.99s CPU    684.34s WALL (     195 calls)

     Called by sum_band:

     Called by *egterg:
     h_psi        :    578.14s CPU    597.60s WALL (    1149 calls)
     g_psi        :      2.29s CPU      2.30s WALL (     953 calls)
     cdiaghg      :      2.70s CPU      2.73s WALL (    1140 calls)

     Called by h_psi:
     h_psi:pot    :    576.68s CPU    594.03s WALL (    1149 calls)
     h_psi:calbec :     86.99s CPU     87.44s WALL (    1149 calls)
     vloc_psi     :    402.24s CPU    418.90s WALL (    1149 calls)
     add_vuspsi   :     87.44s CPU     87.68s WALL (    1149 calls)

     General routines
     calbec       :     92.98s CPU     93.45s WALL (    1189 calls)
     fft          :     65.76s CPU     73.71s WALL (    2250 calls)
     ffts         :      4.93s CPU      5.06s WALL (     195 calls)
     fftw         :    414.43s CPU    432.91s WALL (   37953 calls)
     davcio       :      0.01s CPU      0.27s WALL (      19 calls)
 
     Parallel routines
     fft_scatt_xy :     85.34s CPU     88.68s WALL (   40398 calls)
     fft_scatt_yz :    137.53s CPU    145.35s WALL (   40398 calls)
 
     PWSCF        : 22m22.04s CPU    23m10.26s WALL

 
   This run was terminated on:  18:10:20  25Nov2020            

=------------------------------------------------------------------------------=
   JOB DONE.
=------------------------------------------------------------------------------=
