
     Program PWSCF v.6.3MaX starts on 26Nov2020 at  7:14:35 

     This program is part of the open-source Quantum ESPRESSO suite
     for quantum simulation of materials; please cite
         "P. Giannozzi et al., J. Phys.:Condens. Matter 21 395502 (2009);
         "P. Giannozzi et al., J. Phys.:Condens. Matter 29 465901 (2017);
          URL http://www.quantum-espresso.org", 
     in publications or presentations arising from this work. More details at
     http://www.quantum-espresso.org/quote

     Parallel version (MPI), running on     8 processors

     MPI processes distributed on     3 nodes
     R & G space division:  proc/nbgrp/npool/nimage =       8
     Waiting for input...
     Reading input from standard input

     Current dimensions of program PWSCF are:
     Max number of different atomic species (ntypx) = 10
     Max number of k-points (npk) =  40000
     Max angular momentum in pseudopotentials (lmaxx) =  3

     Subspace diagonalization in iterative solution of the eigenvalue problem:
     a serial algorithm will be used

 
     Parallelization info
     --------------------
     sticks:   dense  smooth     PW     G-vecs:    dense   smooth      PW
     Min        3123    3123    778               448599   448599   56048
     Max        3124    3124    779               448604   448604   56052
     Sum       24985   24985   6229              3588803  3588803  448403
 


     bravais-lattice index     =            4
     lattice parameter (alat)  =      33.6810  a.u.
     unit-cell volume          =   37130.3117 (a.u.)^3
     number of atoms/cell      =           31
     number of atomic types    =            1
     number of electrons       =        93.00
     number of Kohn-Sham states=           56
     kinetic-energy cutoff     =      80.0000  Ry
     charge density cutoff     =     320.0000  Ry
     convergence threshold     =      1.0E-06
     mixing beta               =       0.4000
     number of iterations used =            8  plain     mixing
     Exchange-correlation      = PBE ( 1  4  3  4 0 0)
     nstep                     =          300


     celldm(1)=  33.680967  celldm(2)=   0.000000  celldm(3)=   1.122133
     celldm(4)=   0.000000  celldm(5)=   0.000000  celldm(6)=   0.000000

     crystal axes: (cart. coord. in units of alat)
               a(1) = (   1.000000   0.000000   0.000000 )  
               a(2) = (  -0.500000   0.866025   0.000000 )  
               a(3) = (   0.000000   0.000000   1.122133 )  

     reciprocal axes: (cart. coord. in units 2 pi/alat)
               b(1) = (  1.000000  0.577350  0.000000 )  
               b(2) = (  0.000000  1.154701  0.000000 )  
               b(3) = (  0.000000  0.000000  0.891160 )  


     PseudoPot. # 1 for Al read from file:
     ./Al.upf
     MD5 check sum: 4974d48a734c9d7d1eb6780a1419d19d
     Pseudo is Norm-conserving + core correction, Zval =  3.0
     Generated using ONCVPSP code by D. R. Hamann
     Using radial grid of 1876 points,  6 beta functions with: 
                l(1) =   0
                l(2) =   0
                l(3) =   1
                l(4) =   1
                l(5) =   2
                l(6) =   2

     atomic species   valence    mass     pseudopotential
        Al             3.00    29.98200     Al( 1.00)

      2 Sym. Ops. (no inversion) found



   Cartesian axes

     site n.     atom                  positions (alat units)
         1           Al  tau(   1) = (  -0.0000000   0.1443393   0.0000000  )
         2           Al  tau(   2) = (   0.1250015   0.0721696   0.0000000  )
         3           Al  tau(   3) = (  -0.1249997   0.3608472   0.0000000  )
         4           Al  tau(   4) = (   0.0000018   0.2886775   0.0000000  )
         5           Al  tau(   5) = (  -0.2499994   0.5773550   0.0000000  )
         6           Al  tau(   6) = (  -0.1249979   0.5051854   0.0000000  )
         7           Al  tau(   7) = (  -0.3749991   0.7938629   0.0000000  )
         8           Al  tau(   8) = (  -0.2499976   0.7216932   0.0000000  )
         9           Al  tau(   9) = (   0.2500011   0.1443403   0.0000000  )
        10           Al  tau(  10) = (   0.3750027   0.0721706   0.0000000  )
        11           Al  tau(  11) = (   0.1250014   0.3608482   0.0000000  )
        12           Al  tau(  12) = (   0.2500030   0.2886785   0.0000000  )
        13           Al  tau(  13) = (   0.0000017   0.5773560   0.0000000  )
        14           Al  tau(  14) = (   0.1250033   0.5051864   0.0000000  )
        15           Al  tau(  15) = (  -0.1249980   0.7938639   0.0000000  )
        16           Al  tau(  16) = (   0.0000036   0.7216942   0.0000000  )
        17           Al  tau(  17) = (   0.6250038   0.0721717   0.0000000  )
        18           Al  tau(  18) = (   0.3750026   0.3608492   0.0000000  )
        19           Al  tau(  19) = (   0.5000041   0.2886795   0.0000000  )
        20           Al  tau(  20) = (   0.2500029   0.5773571   0.0000000  )
        21           Al  tau(  21) = (   0.3750044   0.5051874   0.0000000  )
        22           Al  tau(  22) = (   0.1250032   0.7938649   0.0000000  )
        23           Al  tau(  23) = (   0.2500047   0.7216953   0.0000000  )
        24           Al  tau(  24) = (   0.7500035   0.1443423   0.0000000  )
        25           Al  tau(  25) = (   0.8750050   0.0721727   0.0000000  )
        26           Al  tau(  26) = (   0.6250038   0.3608502   0.0000000  )
        27           Al  tau(  27) = (   0.7500053   0.2886805   0.0000000  )
        28           Al  tau(  28) = (   0.5000041   0.5773581   0.0000000  )
        29           Al  tau(  29) = (   0.6250056   0.5051884   0.0000000  )
        30           Al  tau(  30) = (   0.3750044   0.7938660   0.0000000  )
        31           Al  tau(  31) = (   0.5000059   0.7216963   0.0000000  )

     number of k points=     1  Methfessel-Paxton smearing, width (Ry)=  0.0500
                       cart. coord. in units 2pi/alat
        k(    1) = (   0.0000000   0.0000000   0.0000000), wk =   2.0000000

     Dense  grid:  3588803 G-vectors     FFT dimensions: ( 192, 192, 216)

     Estimated max dynamical RAM per process >       1.15 GB

     Estimated total dynamical RAM >       9.23 GB

     Initial potential from superposition of free atoms

     starting charge   92.92414, renormalised to   93.00000

     negative rho (up, down):  9.278E-05 0.000E+00
     Starting wfcs are  124 randomized atomic wfcs

     total cpu time spent up to now is       35.1 secs

     Self-consistent Calculation

     iteration #  1     ecut=    80.00 Ry     beta= 0.40
     Davidson diagonalization with overlap
     ethr =  1.00E-02,  avg # of iterations =  2.0

     total cpu time spent up to now is       61.3 secs

     total energy              =    -140.64286706 Ry
     Harris-Foulkes estimate   =    -141.23602919 Ry
     estimated scf accuracy    <       1.54750870 Ry

     iteration #  2     ecut=    80.00 Ry     beta= 0.40
     Davidson diagonalization with overlap
     ethr =  1.66E-03,  avg # of iterations =  5.0

     total cpu time spent up to now is       88.8 secs

     total energy              =    -140.21976922 Ry
     Harris-Foulkes estimate   =    -141.45712316 Ry
     estimated scf accuracy    <       6.73883131 Ry

     iteration #  3     ecut=    80.00 Ry     beta= 0.40
     Davidson diagonalization with overlap
     ethr =  1.66E-03,  avg # of iterations =  5.0

     total cpu time spent up to now is      114.0 secs

     total energy              =    -140.82778585 Ry
     Harris-Foulkes estimate   =    -141.02320269 Ry
     estimated scf accuracy    <       1.17564014 Ry

     iteration #  4     ecut=    80.00 Ry     beta= 0.40
     Davidson diagonalization with overlap
     ethr =  1.26E-03,  avg # of iterations =  1.0

     total cpu time spent up to now is      133.8 secs

     total energy              =    -140.90086405 Ry
     Harris-Foulkes estimate   =    -140.94382524 Ry
     estimated scf accuracy    <       0.14742607 Ry

     iteration #  5     ecut=    80.00 Ry     beta= 0.40
     Davidson diagonalization with overlap
     ethr =  1.59E-04,  avg # of iterations =  5.0

     total cpu time spent up to now is      157.3 secs

     total energy              =    -140.91332338 Ry
     Harris-Foulkes estimate   =    -140.95575469 Ry
     estimated scf accuracy    <       0.30610645 Ry

     iteration #  6     ecut=    80.00 Ry     beta= 0.40
     Davidson diagonalization with overlap
     ethr =  1.59E-04,  avg # of iterations =  3.0

     total cpu time spent up to now is      178.2 secs

     total energy              =    -140.93253511 Ry
     Harris-Foulkes estimate   =    -140.93479661 Ry
     estimated scf accuracy    <       0.00997987 Ry

     iteration #  7     ecut=    80.00 Ry     beta= 0.40
     Davidson diagonalization with overlap
     ethr =  1.07E-05,  avg # of iterations = 11.0

     total cpu time spent up to now is      212.0 secs

     total energy              =    -140.93563789 Ry
     Harris-Foulkes estimate   =    -140.93675120 Ry
     estimated scf accuracy    <       0.00579857 Ry

     iteration #  8     ecut=    80.00 Ry     beta= 0.40
     Davidson diagonalization with overlap
     ethr =  6.24E-06,  avg # of iterations =  3.0

     total cpu time spent up to now is      233.9 secs

     total energy              =    -140.93574114 Ry
     Harris-Foulkes estimate   =    -140.93656834 Ry
     estimated scf accuracy    <       0.00464615 Ry

     iteration #  9     ecut=    80.00 Ry     beta= 0.40
     Davidson diagonalization with overlap
     ethr =  5.00E-06,  avg # of iterations =  1.0

     total cpu time spent up to now is      253.2 secs

     total energy              =    -140.93591378 Ry
     Harris-Foulkes estimate   =    -140.93618975 Ry
     estimated scf accuracy    <       0.00156802 Ry

     iteration # 10     ecut=    80.00 Ry     beta= 0.40
     Davidson diagonalization with overlap
     ethr =  1.69E-06,  avg # of iterations =  4.0

     total cpu time spent up to now is      273.4 secs

     total energy              =    -140.93601141 Ry
     Harris-Foulkes estimate   =    -140.93609886 Ry
     estimated scf accuracy    <       0.00042563 Ry

     iteration # 11     ecut=    80.00 Ry     beta= 0.40
     Davidson diagonalization with overlap
     ethr =  4.58E-07,  avg # of iterations =  5.0

     total cpu time spent up to now is      298.2 secs

     total energy              =    -140.93607862 Ry
     Harris-Foulkes estimate   =    -140.93612794 Ry
     estimated scf accuracy    <       0.00029865 Ry

     iteration # 12     ecut=    80.00 Ry     beta= 0.40
     Davidson diagonalization with overlap
     ethr =  3.21E-07,  avg # of iterations =  3.0

     total cpu time spent up to now is      320.6 secs

     total energy              =    -140.93610004 Ry
     Harris-Foulkes estimate   =    -140.93611323 Ry
     estimated scf accuracy    <       0.00007482 Ry

     iteration # 13     ecut=    80.00 Ry     beta= 0.40
     Davidson diagonalization with overlap
     ethr =  8.05E-08,  avg # of iterations =  3.0

     total cpu time spent up to now is      346.2 secs

     total energy              =    -140.93610661 Ry
     Harris-Foulkes estimate   =    -140.93610927 Ry
     estimated scf accuracy    <       0.00001305 Ry

     iteration # 14     ecut=    80.00 Ry     beta= 0.40
     Davidson diagonalization with overlap
     ethr =  1.40E-08,  avg # of iterations =  5.0

     total cpu time spent up to now is      371.9 secs

     total energy              =    -140.93610847 Ry
     Harris-Foulkes estimate   =    -140.93611046 Ry
     estimated scf accuracy    <       0.00000762 Ry

     iteration # 15     ecut=    80.00 Ry     beta= 0.40
     Davidson diagonalization with overlap
     ethr =  8.20E-09,  avg # of iterations =  3.0

     total cpu time spent up to now is      394.3 secs

     total energy              =    -140.93610826 Ry
     Harris-Foulkes estimate   =    -140.93611041 Ry
     estimated scf accuracy    <       0.00001451 Ry

     iteration # 16     ecut=    80.00 Ry     beta= 0.40
     Davidson diagonalization with overlap
     ethr =  8.20E-09,  avg # of iterations =  1.0

     total cpu time spent up to now is      413.2 secs

     End of self-consistent calculation

          k = 0.0000 0.0000 0.0000 (448403 PWs)   bands (ev):

    -9.9530  -9.4485  -9.4330  -9.4328  -9.4260  -9.4259  -9.1458  -8.4049
    -8.4047  -8.3882  -8.3882  -8.3798  -8.3036  -8.2570  -8.2570  -7.5863
    -6.9325  -6.9324  -6.8234  -6.4866  -6.4774  -6.4773  -6.3701  -6.3700
    -5.4641  -4.8435  -4.8434  -4.8370  -4.7357  -4.7355  -4.4780  -4.4681
    -4.4430  -4.4429  -4.1225  -4.1224  -3.9780  -3.4713  -3.4688  -3.4687
    -3.4578  -3.4577  -3.4018  -3.2745  -3.2744  -3.2223  -3.2073  -2.9743
    -2.9654  -2.9653  -2.9390  -2.5198  -2.5197  -2.4494  -2.4491  -2.4315

     the Fermi energy is    -3.0911 ev

!    total energy              =    -140.93610879 Ry
     Harris-Foulkes estimate   =    -140.93610928 Ry
     estimated scf accuracy    <       0.00000072 Ry

     The total energy is the sum of the following terms:

     one-electron contribution =    -502.03713779 Ry
     hartree contribution      =     259.76429364 Ry
     xc contribution           =     -61.33585793 Ry
     ewald contribution        =     162.75359565 Ry
     smearing contrib. (-TS)   =      -0.08100236 Ry

     convergence has been achieved in  16 iterations

     Forces acting on atoms (cartesian axes, Ry/au):

     atom    1 type  1   force =     0.00000426   -0.00230044    0.00000000
     atom    2 type  1   force =     0.00372140    0.00399403    0.00000000
     atom    3 type  1   force =     0.00115042    0.00066728    0.00000000
     atom    4 type  1   force =    -0.00000621   -0.00051730    0.00000000
     atom    5 type  1   force =    -0.00197586    0.00114886    0.00000000
     atom    6 type  1   force =    -0.00046262    0.00027864    0.00000000
     atom    7 type  1   force =    -0.00183178   -0.00108611    0.00000000
     atom    8 type  1   force =     0.00530404    0.00122919    0.00000000
     atom    9 type  1   force =    -0.00257255    0.00219158    0.00000000
     atom   10 type  1   force =     0.01313295    0.00758637    0.00000000
     atom   11 type  1   force =    -0.00114028    0.00066454    0.00000000
     atom   12 type  1   force =     0.00111917   -0.00066096    0.00000000
     atom   13 type  1   force =    -0.00003137   -0.00130911    0.00000000
     atom   14 type  1   force =     0.00046922    0.00024644    0.00000000
     atom   15 type  1   force =     0.00062504   -0.00334563    0.00000000
     atom   16 type  1   force =    -0.00001868    0.00130567    0.00000000
     atom   17 type  1   force =    -0.01312214    0.00758487    0.00000000
     atom   18 type  1   force =    -0.00317594    0.00110325    0.00000000
     atom   19 type  1   force =    -0.00002733   -0.01514705    0.00000000
     atom   20 type  1   force =     0.00201044    0.00115334    0.00000000
     atom   21 type  1   force =    -0.00159672   -0.00516870    0.00000000
     atom   22 type  1   force =    -0.00062974   -0.00334642    0.00000000
     atom   23 type  1   force =    -0.00529664    0.00121245    0.00000000
     atom   24 type  1   force =     0.00255881    0.00221526    0.00000000
     atom   25 type  1   force =    -0.00370578    0.00398340    0.00000000
     atom   26 type  1   force =     0.00321624    0.00112501    0.00000000
     atom   27 type  1   force =    -0.00113423   -0.00065818    0.00000000
     atom   28 type  1   force =    -0.00001375    0.00213997    0.00000000
     atom   29 type  1   force =     0.00158254   -0.00520224    0.00000000
     atom   30 type  1   force =     0.00186511   -0.00108195    0.00000000
     atom   31 type  1   force =    -0.00001803   -0.00000604    0.00000000

     Total force =     0.031247     Total SCF correction =     0.000595


     Computing stress (Cartesian axis) and pressure

          total   stress  (Ry/bohr**3)                   (kbar)     P=   -0.57
  -0.00000578   0.00000000   0.00000000         -0.85      0.00      0.00
   0.00000000  -0.00000577   0.00000000          0.00     -0.85      0.00
   0.00000000   0.00000000   0.00000001          0.00      0.00      0.00


     BFGS Geometry Optimization

     number of scf cycles    =   1
     number of bfgs steps    =   0

     enthalpy new            =    -140.9361087876 Ry

     new trust radius        =       0.0151666486 bohr
     new conv_thr            =       0.0000010000 Ry

     new unit-cell volume =  37119.58721 a.u.^3 (  5500.55525 Ang^3 )
     density =      0.28059 g/cm^3

CELL_PARAMETERS (alat= 33.68096681)
   0.999855437   0.000000035   0.000000000
  -0.499927688   0.865900426   0.000000000
   0.000000000   0.000000000   1.122132950

ATOMIC_POSITIONS (angstrom)
Al       0.000001756   2.570999502   0.000000000
Al       2.229573708   1.288221146   0.000000000
Al      -2.226964243   6.430875945   0.000000000
Al       0.000028990   5.144140423   0.000000000
Al      -4.456190798  10.289436971   0.000000000
Al      -2.227784933   9.002867775   0.000000000
Al      -6.683686999  14.146560669   0.000000000
Al      -4.452306226  12.861676933   0.000000000
Al       4.453815016   2.573394581   0.000000000
Al       6.689730013   1.290140206   0.000000000
Al       2.227000393   6.430892844   0.000000000
Al       4.455801079   5.144082759   0.000000000
Al       0.000014685  10.288154804   0.000000000
Al       2.227884752   9.002869085   0.000000000
Al      -2.227210447  14.145383502   0.000000000
Al       0.000054170  12.861735750   0.000000000
Al      11.131015077   1.290157765   0.000000000
Al       6.681099975   6.431143316   0.000000000
Al       8.910371117   5.136436505   0.000000000
Al       4.456271658  10.289476041   0.000000000
Al       6.681968314   9.000022281   0.000000000
Al       2.227302303  14.145401432   0.000000000
Al       4.452438246  12.861704773   0.000000000
Al      13.366883327   2.573443807   0.000000000
Al      15.591173932   1.288270572   0.000000000
Al      11.139658734   6.431173178   0.000000000
Al      13.364962105   5.144120931   0.000000000
Al       8.910377310  10.290016416   0.000000000
Al      11.138827112   9.000022882   0.000000000
Al       6.683798981  14.146617919   0.000000000
Al       8.910407816  12.861078419   0.000000000



     Writing output data file 17al_planar_2x2_vcr.save/
     NEW-OLD atomic charge density approx. for the potential

     negative rho (up, down):  2.995E-07 0.000E+00
     extrapolated charge   92.97315, renormalised to   93.00000

     total cpu time spent up to now is      500.5 secs

     Self-consistent Calculation

     iteration #  1     ecut=    80.00 Ry     beta= 0.40
     Davidson diagonalization with overlap
     ethr =  1.00E-06,  avg # of iterations =  4.0

     Threshold (ethr) on eigenvalues was too large:
     Diagonalizing with lowered threshold

     Davidson diagonalization with overlap
     ethr =  6.71E-08,  avg # of iterations =  5.0

     negative rho (up, down):  1.482E-07 0.000E+00

     total cpu time spent up to now is      551.0 secs

     total energy              =    -140.93707891 Ry
     Harris-Foulkes estimate   =    -141.06998180 Ry
     estimated scf accuracy    <       0.00007696 Ry

     iteration #  2     ecut=    80.00 Ry     beta= 0.40
     Davidson diagonalization with overlap
     ethr =  8.28E-08,  avg # of iterations =  6.0

     negative rho (up, down):  1.318E-07 0.000E+00

     total cpu time spent up to now is      578.6 secs

     total energy              =    -140.93704539 Ry
     Harris-Foulkes estimate   =    -140.93717010 Ry
     estimated scf accuracy    <       0.00086933 Ry

     iteration #  3     ecut=    80.00 Ry     beta= 0.40
     Davidson diagonalization with overlap
     ethr =  8.28E-08,  avg # of iterations =  4.0

     negative rho (up, down):  8.543E-08 0.000E+00

     total cpu time spent up to now is      603.2 secs

     total energy              =    -140.93710993 Ry
     Harris-Foulkes estimate   =    -140.93711676 Ry
     estimated scf accuracy    <       0.00004381 Ry

     iteration #  4     ecut=    80.00 Ry     beta= 0.40
     Davidson diagonalization with overlap
     ethr =  4.71E-08,  avg # of iterations =  1.0

     negative rho (up, down):  5.156E-08 0.000E+00

     total cpu time spent up to now is      622.5 secs

     total energy              =    -140.93711179 Ry
     Harris-Foulkes estimate   =    -140.93711326 Ry
     estimated scf accuracy    <       0.00000630 Ry

     iteration #  5     ecut=    80.00 Ry     beta= 0.40
     Davidson diagonalization with overlap
     ethr =  6.77E-09,  avg # of iterations =  5.0

     negative rho (up, down):  3.395E-08 0.000E+00

     total cpu time spent up to now is      645.9 secs

     total energy              =    -140.93711169 Ry
     Harris-Foulkes estimate   =    -140.93711427 Ry
     estimated scf accuracy    <       0.00001573 Ry

     iteration #  6     ecut=    80.00 Ry     beta= 0.40
     Davidson diagonalization with overlap
     ethr =  6.77E-09,  avg # of iterations =  4.0

     negative rho (up, down):  1.076E-08 0.000E+00

     total cpu time spent up to now is      667.2 secs

     total energy              =    -140.93711308 Ry
     Harris-Foulkes estimate   =    -140.93711332 Ry
     estimated scf accuracy    <       0.00000220 Ry

     iteration #  7     ecut=    80.00 Ry     beta= 0.40
     Davidson diagonalization with overlap
     ethr =  2.36E-09,  avg # of iterations =  3.0

     total cpu time spent up to now is      688.1 secs

     End of self-consistent calculation

          k = 0.0000 0.0000 0.0000 (448403 PWs)   bands (ev):

    -9.9533  -9.4487  -9.4335  -9.4334  -9.4255  -9.4253  -9.1439  -8.4040
    -8.4039  -8.3847  -8.3845  -8.3828  -8.3050  -8.2546  -8.2544  -7.5852
    -6.9323  -6.9323  -6.8229  -6.4823  -6.4776  -6.4775  -6.3722  -6.3722
    -5.4694  -4.8397  -4.8396  -4.8351  -4.7365  -4.7364  -4.4766  -4.4673
    -4.4431  -4.4431  -4.1252  -4.1250  -3.9780  -3.4712  -3.4677  -3.4675
    -3.4583  -3.4581  -3.4000  -3.2732  -3.2731  -3.2211  -3.2175  -2.9704
    -2.9636  -2.9635  -2.9412  -2.5171  -2.5169  -2.4461  -2.4458  -2.4336

     the Fermi energy is    -3.0908 ev

!    total energy              =    -140.93711254 Ry
     Harris-Foulkes estimate   =    -140.93711333 Ry
     estimated scf accuracy    <       0.00000094 Ry

     The total energy is the sum of the following terms:

     one-electron contribution =    -502.12505284 Ry
     hartree contribution      =     259.80748266 Ry
     xc contribution           =     -61.33394196 Ry
     ewald contribution        =     162.79507753 Ry
     smearing contrib. (-TS)   =      -0.08067793 Ry

     convergence has been achieved in   7 iterations

     Forces acting on atoms (cartesian axes, Ry/au):

     atom    1 type  1   force =     0.00000552   -0.00225794    0.00000000
     atom    2 type  1   force =     0.00325447    0.00324883    0.00000000
     atom    3 type  1   force =     0.00092898    0.00053501    0.00000000
     atom    4 type  1   force =    -0.00001264   -0.00075476    0.00000000
     atom    5 type  1   force =    -0.00193577    0.00113652    0.00000000
     atom    6 type  1   force =    -0.00064800    0.00035698    0.00000000
     atom    7 type  1   force =    -0.00135924   -0.00081191    0.00000000
     atom    8 type  1   force =     0.00441625    0.00122356    0.00000000
     atom    9 type  1   force =    -0.00138215    0.00161353    0.00000000
     atom   10 type  1   force =     0.01296544    0.00751269    0.00000000
     atom   11 type  1   force =    -0.00091721    0.00053874    0.00000000
     atom   12 type  1   force =     0.00080827   -0.00047467    0.00000000
     atom   13 type  1   force =    -0.00002101   -0.00104216    0.00000000
     atom   14 type  1   force =     0.00066149    0.00034902    0.00000000
     atom   15 type  1   force =     0.00071127   -0.00203005    0.00000000
     atom   16 type  1   force =    -0.00002578    0.00092581    0.00000000
     atom   17 type  1   force =    -0.01295910    0.00752633    0.00000000
     atom   18 type  1   force =    -0.00207371    0.00040467    0.00000000
     atom   19 type  1   force =    -0.00000789   -0.01497225    0.00000000
     atom   20 type  1   force =     0.00196951    0.00114253    0.00000000
     atom   21 type  1   force =    -0.00116586   -0.00445014    0.00000000
     atom   22 type  1   force =    -0.00068368   -0.00201948    0.00000000
     atom   23 type  1   force =    -0.00442039    0.00121350    0.00000000
     atom   24 type  1   force =     0.00135813    0.00161943    0.00000000
     atom   25 type  1   force =    -0.00325010    0.00323347    0.00000000
     atom   26 type  1   force =     0.00209792    0.00038603    0.00000000
     atom   27 type  1   force =    -0.00081996   -0.00047741    0.00000000
     atom   28 type  1   force =    -0.00001574    0.00159507    0.00000000
     atom   29 type  1   force =     0.00115784   -0.00445981    0.00000000
     atom   30 type  1   force =     0.00137164   -0.00081189    0.00000000
     atom   31 type  1   force =    -0.00000851    0.00000075    0.00000000

     Total force =     0.029285     Total SCF correction =     0.000788


     Computing stress (Cartesian axis) and pressure

          total   stress  (Ry/bohr**3)                   (kbar)     P=   -0.58
  -0.00000592   0.00000000   0.00000000         -0.87      0.00      0.00
   0.00000000  -0.00000592   0.00000000          0.00     -0.87      0.00
   0.00000000   0.00000000   0.00000001          0.00      0.00      0.00


     number of scf cycles    =   2
     number of bfgs steps    =   1

     enthalpy old            =    -140.9361087876 Ry
     enthalpy new            =    -140.9371125423 Ry

     CASE: enthalpy_new < enthalpy_old


     WARNING: bfgs curvature condition failed, Theta= 0.855
     new trust radius        =       0.0227466864 bohr
     new conv_thr            =       0.0000010000 Ry

     new unit-cell volume =  37103.14129 a.u.^3 (  5498.11821 Ang^3 )
     density =      0.28071 g/cm^3

CELL_PARAMETERS (alat= 33.68096681)
   0.999633882   0.000000072   0.000000000
  -0.499816878   0.865708598   0.000000000
   0.000000000   0.000000000   1.122132950

ATOMIC_POSITIONS (angstrom)
Al       0.000005875   2.568611987   0.000000000
Al       2.231824605   1.290761676   0.000000000
Al      -2.225659951   6.429919614   0.000000000
Al       0.000021045   5.142470479   0.000000000
Al      -4.456762703  10.288069849   0.000000000
Al      -2.227752038   9.001134745   0.000000000
Al      -6.683437054  14.142693564   0.000000000
Al      -4.447516381  12.859807543   0.000000000
Al       4.451357923   2.574291973   0.000000000
Al       6.698663441   1.295882789   0.000000000
Al       2.225705482   6.429937668   0.000000000
Al       4.455555475   5.142506812   0.000000000
Al      -0.000004910  10.284960806   0.000000000
Al       2.227861175   9.001122416   0.000000000
Al      -2.226174294  14.140223389   0.000000000
Al       0.000036208  12.859743376   0.000000000
Al      11.118139332   1.295906763   0.000000000
Al       6.677623734   6.430256905   0.000000000
Al       8.908384606   5.123276856   0.000000000
Al       4.456871541  10.288113581   0.000000000
Al       6.679423784   8.994250967   0.000000000
Al       2.226279326  14.140246445   0.000000000
Al       4.447649566  12.859825616   0.000000000
Al      13.365375725   2.574351692   0.000000000
Al      15.584981228   1.290800764   0.000000000
Al      11.139210894   6.430284426   0.000000000
Al      13.361248857   5.142544812   0.000000000
Al       8.908391297  10.289179703   0.000000000
Al      11.137415148   8.994236674   0.000000000
Al       6.683566407  14.142752586   0.000000000
Al       8.908424136  12.858228356   0.000000000



     Writing output data file 17al_planar_2x2_vcr.save/
     NEW-OLD atomic charge density approx. for the potential

     negative rho (up, down):  4.820E-07 0.000E+00
     extrapolated charge   92.95881, renormalised to   93.00000

     total cpu time spent up to now is      775.1 secs

     Self-consistent Calculation

     iteration #  1     ecut=    80.00 Ry     beta= 0.40
     Davidson diagonalization with overlap
     ethr =  1.00E-06,  avg # of iterations =  4.0

     negative rho (up, down):  2.414E-07 0.000E+00

     total cpu time spent up to now is      805.0 secs

     total energy              =    -140.93839654 Ry
     Harris-Foulkes estimate   =    -141.14237353 Ry
     estimated scf accuracy    <       0.00015931 Ry

     iteration #  2     ecut=    80.00 Ry     beta= 0.40
     Davidson diagonalization with overlap
     ethr =  1.71E-07,  avg # of iterations =  7.0

     negative rho (up, down):  2.159E-07 0.000E+00

     total cpu time spent up to now is      834.6 secs

     total energy              =    -140.93833907 Ry
     Harris-Foulkes estimate   =    -140.93861493 Ry
     estimated scf accuracy    <       0.00196960 Ry

     iteration #  3     ecut=    80.00 Ry     beta= 0.40
     Davidson diagonalization with overlap
     ethr =  1.71E-07,  avg # of iterations =  5.0

     negative rho (up, down):  1.410E-07 0.000E+00

     total cpu time spent up to now is      860.7 secs

     total energy              =    -140.93847678 Ry
     Harris-Foulkes estimate   =    -140.93848653 Ry
     estimated scf accuracy    <       0.00005063 Ry

     iteration #  4     ecut=    80.00 Ry     beta= 0.40
     Davidson diagonalization with overlap
     ethr =  5.44E-08,  avg # of iterations =  3.0

     negative rho (up, down):  1.061E-07 0.000E+00

     total cpu time spent up to now is      881.5 secs

     total energy              =    -140.93847715 Ry
     Harris-Foulkes estimate   =    -140.93848296 Ry
     estimated scf accuracy    <       0.00002493 Ry

     iteration #  5     ecut=    80.00 Ry     beta= 0.40
     Davidson diagonalization with overlap
     ethr =  2.68E-08,  avg # of iterations =  4.0

     negative rho (up, down):  5.127E-08 0.000E+00

     total cpu time spent up to now is      902.9 secs

     total energy              =    -140.93847938 Ry
     Harris-Foulkes estimate   =    -140.93848292 Ry
     estimated scf accuracy    <       0.00002297 Ry

     iteration #  6     ecut=    80.00 Ry     beta= 0.40
     Davidson diagonalization with overlap
     ethr =  2.47E-08,  avg # of iterations =  1.0

     negative rho (up, down):  1.608E-08 0.000E+00

     total cpu time spent up to now is      922.0 secs

     total energy              =    -140.93848138 Ry
     Harris-Foulkes estimate   =    -140.93848145 Ry
     estimated scf accuracy    <       0.00000144 Ry

     iteration #  7     ecut=    80.00 Ry     beta= 0.40
     Davidson diagonalization with overlap
     ethr =  1.55E-09,  avg # of iterations =  5.0

     negative rho (up, down):  1.099E-08 0.000E+00

     total cpu time spent up to now is      958.7 secs

     total energy              =    -140.93848144 Ry
     Harris-Foulkes estimate   =    -140.93848180 Ry
     estimated scf accuracy    <       0.00000218 Ry

     iteration #  8     ecut=    80.00 Ry     beta= 0.40
     Davidson diagonalization with overlap
     ethr =  1.55E-09,  avg # of iterations =  3.0

     total cpu time spent up to now is      982.8 secs

     total energy              =    -140.93848149 Ry
     Harris-Foulkes estimate   =    -140.93848166 Ry
     estimated scf accuracy    <       0.00000119 Ry

     iteration #  9     ecut=    80.00 Ry     beta= 0.40
     Davidson diagonalization with overlap
     ethr =  1.28E-09,  avg # of iterations =  1.0

     total cpu time spent up to now is     1001.9 secs

     End of self-consistent calculation

          k = 0.0000 0.0000 0.0000 (448403 PWs)   bands (ev):

    -9.9540  -9.4490  -9.4355  -9.4354  -9.4238  -9.4237  -9.1415  -8.4032
    -8.4031  -8.3871  -8.3799  -8.3799  -8.3071  -8.2508  -8.2507  -7.5838
    -6.9323  -6.9323  -6.8226  -6.4779  -6.4778  -6.4767  -6.3750  -6.3749
    -5.4773  -4.8344  -4.8343  -4.8325  -4.7375  -4.7375  -4.4747  -4.4661
    -4.4435  -4.4435  -4.1292  -4.1291  -3.9782  -3.4710  -3.4669  -3.4669
    -3.4586  -3.4586  -3.3974  -3.2713  -3.2713  -3.2328  -3.2197  -2.9653
    -2.9610  -2.9609  -2.9436  -2.5132  -2.5132  -2.4417  -2.4413  -2.4367

     the Fermi energy is    -3.0905 ev

!    total energy              =    -140.93848146 Ry
     Harris-Foulkes estimate   =    -140.93848153 Ry
     estimated scf accuracy    <       0.00000014 Ry

     The total energy is the sum of the following terms:

     one-electron contribution =    -502.26118552 Ry
     hartree contribution      =     259.87507423 Ry
     xc contribution           =     -61.33157685 Ry
     ewald contribution        =     162.85936252 Ry
     smearing contrib. (-TS)   =      -0.08015583 Ry

     convergence has been achieved in   9 iterations

     Forces acting on atoms (cartesian axes, Ry/au):

     atom    1 type  1   force =    -0.00000991   -0.00220109    0.00000000
     atom    2 type  1   force =     0.00265872    0.00229065    0.00000000
     atom    3 type  1   force =     0.00063892    0.00037940    0.00000000
     atom    4 type  1   force =    -0.00000853   -0.00105284    0.00000000
     atom    5 type  1   force =    -0.00190285    0.00110344    0.00000000
     atom    6 type  1   force =    -0.00090226    0.00050917    0.00000000
     atom    7 type  1   force =    -0.00073077   -0.00043741    0.00000000
     atom    8 type  1   force =     0.00329495    0.00116755    0.00000000
     atom    9 type  1   force =     0.00020615    0.00081508    0.00000000
     atom   10 type  1   force =     0.01281915    0.00742850    0.00000000
     atom   11 type  1   force =    -0.00063104    0.00037555    0.00000000
     atom   12 type  1   force =     0.00041419   -0.00024684    0.00000000
     atom   13 type  1   force =    -0.00000233   -0.00072023    0.00000000
     atom   14 type  1   force =     0.00089577    0.00051339    0.00000000
     atom   15 type  1   force =     0.00080341   -0.00024926    0.00000000
     atom   16 type  1   force =    -0.00001457    0.00045378    0.00000000
     atom   17 type  1   force =    -0.01281712    0.00743045    0.00000000
     atom   18 type  1   force =    -0.00058565   -0.00056816    0.00000000
     atom   19 type  1   force =    -0.00000207   -0.01480768    0.00000000
     atom   20 type  1   force =     0.00191645    0.00111509    0.00000000
     atom   21 type  1   force =    -0.00063724   -0.00345826    0.00000000
     atom   22 type  1   force =    -0.00078636   -0.00023673    0.00000000
     atom   23 type  1   force =    -0.00328808    0.00116386    0.00000000
     atom   24 type  1   force =    -0.00021490    0.00081329    0.00000000
     atom   25 type  1   force =    -0.00264483    0.00229462    0.00000000
     atom   26 type  1   force =     0.00059973   -0.00058895    0.00000000
     atom   27 type  1   force =    -0.00042455   -0.00024002    0.00000000
     atom   28 type  1   force =    -0.00001418    0.00085121    0.00000000
     atom   29 type  1   force =     0.00064902   -0.00345372    0.00000000
     atom   30 type  1   force =     0.00073005   -0.00044721    0.00000000
     atom   31 type  1   force =    -0.00000928    0.00000338    0.00000000

     Total force =     0.027540     Total SCF correction =     0.000194


     Computing stress (Cartesian axis) and pressure

          total   stress  (Ry/bohr**3)                   (kbar)     P=   -0.60
  -0.00000609  -0.00000000   0.00000000         -0.90     -0.00      0.00
  -0.00000000  -0.00000610   0.00000000         -0.00     -0.90      0.00
   0.00000000   0.00000000   0.00000002          0.00      0.00      0.00


     number of scf cycles    =   3
     number of bfgs steps    =   2

     enthalpy old            =    -140.9371125423 Ry
     enthalpy new            =    -140.9384814589 Ry

     CASE: enthalpy_new < enthalpy_old

     new trust radius        =       0.0341124707 bohr
     new conv_thr            =       0.0000010000 Ry

     new unit-cell volume =  37077.95504 a.u.^3 (  5494.38600 Ang^3 )
     density =      0.28090 g/cm^3

CELL_PARAMETERS (alat= 33.68096681)
   0.999294581  -0.000000005   0.000000000
  -0.499647295   0.865414722   0.000000000
   0.000000000   0.000000000   1.122132950

ATOMIC_POSITIONS (angstrom)
Al       0.000001195   2.565033978   0.000000000
Al       2.234836918   1.293990312   0.000000000
Al      -2.223862843   6.428347262   0.000000000
Al       0.000011643   5.139740384   0.000000000
Al      -4.457583295  10.285931453   0.000000000
Al      -2.227850367   8.998570291   0.000000000
Al      -6.682635974  14.137020358   0.000000000
Al      -4.440967516  12.856881795   0.000000000
Al       4.448617646   2.575132000   0.000000000
Al       6.712008563   1.304480366   0.000000000
Al       2.223918041   6.428360858   0.000000000
Al       4.454916980   5.140242713   0.000000000
Al      -0.000023939  10.280287549   0.000000000
Al       2.227957096   8.998543260   0.000000000
Al      -2.224546311  14.133475900   0.000000000
Al       0.000015537  12.856377520   0.000000000
Al      11.098753668   1.304504381   0.000000000
Al       6.673273360   6.428277098   0.000000000
Al       8.905344479   5.103507387   0.000000000
Al       4.457717981  10.285984725   0.000000000
Al       6.675877407   8.986118920   0.000000000
Al       2.224657901  14.133506568   0.000000000
Al       4.441107332  12.856887775   0.000000000
Al      13.362055083   2.575202452   0.000000000
Al      15.575939013   1.294025482   0.000000000
Al      11.137543753   6.428302033   0.000000000
Al      13.355824100   5.140286148   0.000000000
Al       8.905349924  10.287397049   0.000000000
Al      11.134913095   8.986089432   0.000000000
Al       6.682780393  14.137073921   0.000000000
Al       8.905383514  12.853861242   0.000000000



     Writing output data file 17al_planar_2x2_vcr.save/
     NEW-OLD atomic charge density approx. for the potential

     negative rho (up, down):  7.512E-07 0.000E+00
     extrapolated charge   92.93688, renormalised to   93.00000

     total cpu time spent up to now is     1088.6 secs

     Self-consistent Calculation

     iteration #  1     ecut=    80.00 Ry     beta= 0.40
     Davidson diagonalization with overlap
     ethr =  1.00E-06,  avg # of iterations =  5.0

     negative rho (up, down):  3.820E-07 0.000E+00

     total cpu time spent up to now is     1123.4 secs

     total energy              =    -140.94024225 Ry
     Harris-Foulkes estimate   =    -141.25293549 Ry
     estimated scf accuracy    <       0.00019328 Ry

     iteration #  2     ecut=    80.00 Ry     beta= 0.40
     Davidson diagonalization with overlap
     ethr =  2.08E-07,  avg # of iterations =  5.0

     negative rho (up, down):  3.439E-07 0.000E+00

     total cpu time spent up to now is     1153.0 secs

     total energy              =    -140.94022908 Ry
     Harris-Foulkes estimate   =    -140.94048761 Ry
     estimated scf accuracy    <       0.00195152 Ry

     iteration #  3     ecut=    80.00 Ry     beta= 0.40
     Davidson diagonalization with overlap
     ethr =  2.08E-07,  avg # of iterations =  4.0

     negative rho (up, down):  2.221E-07 0.000E+00

     total cpu time spent up to now is     1177.1 secs

     total energy              =    -140.94034944 Ry
     Harris-Foulkes estimate   =    -140.94036209 Ry
     estimated scf accuracy    <       0.00005646 Ry

     iteration #  4     ecut=    80.00 Ry     beta= 0.40
     Davidson diagonalization with overlap
     ethr =  6.07E-08,  avg # of iterations =  3.0

     negative rho (up, down):  1.665E-07 0.000E+00

     total cpu time spent up to now is     1197.0 secs

     total energy              =    -140.94034817 Ry
     Harris-Foulkes estimate   =    -140.94035697 Ry
     estimated scf accuracy    <       0.00003571 Ry

     iteration #  5     ecut=    80.00 Ry     beta= 0.40
     Davidson diagonalization with overlap
     ethr =  3.84E-08,  avg # of iterations =  3.0

     negative rho (up, down):  5.623E-08 0.000E+00

     total cpu time spent up to now is     1217.8 secs

     total energy              =    -140.94034951 Ry
     Harris-Foulkes estimate   =    -140.94035886 Ry
     estimated scf accuracy    <       0.00006161 Ry

     iteration #  6     ecut=    80.00 Ry     beta= 0.40
     Davidson diagonalization with overlap
     ethr =  3.84E-08,  avg # of iterations =  2.0

     negative rho (up, down):  2.153E-08 0.000E+00

     total cpu time spent up to now is     1237.6 secs

     total energy              =    -140.94035438 Ry
     Harris-Foulkes estimate   =    -140.94035475 Ry
     estimated scf accuracy    <       0.00000286 Ry

     iteration #  7     ecut=    80.00 Ry     beta= 0.40
     Davidson diagonalization with overlap
     ethr =  3.08E-09,  avg # of iterations =  5.0

     negative rho (up, down):  1.748E-08 0.000E+00

     total cpu time spent up to now is     1263.3 secs

     total energy              =    -140.94035474 Ry
     Harris-Foulkes estimate   =    -140.94035514 Ry
     estimated scf accuracy    <       0.00000289 Ry

     iteration #  8     ecut=    80.00 Ry     beta= 0.40
     Davidson diagonalization with overlap
     ethr =  3.08E-09,  avg # of iterations =  3.0

     total cpu time spent up to now is     1283.6 secs

     End of self-consistent calculation

          k = 0.0000 0.0000 0.0000 (448403 PWs)   bands (ev):

    -9.9554  -9.4501  -9.4391  -9.4390  -9.4211  -9.4210  -9.1387  -8.4027
    -8.4026  -8.3923  -8.3747  -8.3746  -8.3100  -8.2451  -8.2451  -7.5823
    -6.9328  -6.9327  -6.8229  -6.4782  -6.4782  -6.4693  -6.3785  -6.3784
    -5.4888  -4.8293  -4.8276  -4.8276  -4.7383  -4.7382  -4.4725  -4.4646
    -4.4443  -4.4443  -4.1352  -4.1351  -3.9787  -3.4713  -3.4672  -3.4670
    -3.4580  -3.4579  -3.3938  -3.2689  -3.2688  -3.2558  -3.2181  -2.9604
    -2.9574  -2.9573  -2.9442  -2.5084  -2.5083  -2.4403  -2.4360  -2.4357

     the Fermi energy is    -3.0903 ev

!    total energy              =    -140.94035422 Ry
     Harris-Foulkes estimate   =    -140.94035490 Ry
     estimated scf accuracy    <       0.00000092 Ry

     The total energy is the sum of the following terms:

     one-electron contribution =    -502.47073400 Ry
     hartree contribution      =     259.97936506 Ry
     xc contribution           =     -61.32843094 Ry
     ewald contribution        =     162.95876924 Ry
     smearing contrib. (-TS)   =      -0.07932357 Ry

     convergence has been achieved in   8 iterations

     Forces acting on atoms (cartesian axes, Ry/au):

     atom    1 type  1   force =    -0.00001232   -0.00212838    0.00000000
     atom    2 type  1   force =     0.00188670    0.00111980    0.00000000
     atom    3 type  1   force =     0.00030738    0.00018243    0.00000000
     atom    4 type  1   force =     0.00000935   -0.00140681    0.00000000
     atom    5 type  1   force =    -0.00183934    0.00105723    0.00000000
     atom    6 type  1   force =    -0.00121375    0.00070799    0.00000000
     atom    7 type  1   force =     0.00005091    0.00001668    0.00000000
     atom    8 type  1   force =     0.00189681    0.00107569    0.00000000
     atom    9 type  1   force =     0.00228639   -0.00025283    0.00000000
     atom   10 type  1   force =     0.01276292    0.00738145    0.00000000
     atom   11 type  1   force =    -0.00030329    0.00019058    0.00000000
     atom   12 type  1   force =    -0.00008195    0.00003963    0.00000000
     atom   13 type  1   force =    -0.00000384   -0.00036168    0.00000000
     atom   14 type  1   force =     0.00122852    0.00068974    0.00000000
     atom   15 type  1   force =     0.00091808    0.00210601    0.00000000
     atom   16 type  1   force =    -0.00001614   -0.00009763    0.00000000
     atom   17 type  1   force =    -0.01277071    0.00739905    0.00000000
     atom   18 type  1   force =     0.00136413   -0.00183393    0.00000000
     atom   19 type  1   force =    -0.00000988   -0.01473916    0.00000000
     atom   20 type  1   force =     0.00183907    0.00106702    0.00000000
     atom   21 type  1   force =    -0.00001961   -0.00219076    0.00000000
     atom   22 type  1   force =    -0.00090299    0.00209077    0.00000000
     atom   23 type  1   force =    -0.00187890    0.00105993    0.00000000
     atom   24 type  1   force =    -0.00227767   -0.00026131    0.00000000
     atom   25 type  1   force =    -0.00187484    0.00111037    0.00000000
     atom   26 type  1   force =    -0.00137183   -0.00183837    0.00000000
     atom   27 type  1   force =     0.00008049    0.00003951    0.00000000
     atom   28 type  1   force =    -0.00000768   -0.00005359    0.00000000
     atom   29 type  1   force =     0.00001775   -0.00218762    0.00000000
     atom   30 type  1   force =    -0.00005786    0.00002526    0.00000000
     atom   31 type  1   force =    -0.00000590   -0.00000707    0.00000000

     Total force =     0.027063     Total SCF correction =     0.000629


     Computing stress (Cartesian axis) and pressure

          total   stress  (Ry/bohr**3)                   (kbar)     P=   -0.62
  -0.00000633  -0.00000001   0.00000000         -0.93     -0.00      0.00
  -0.00000001  -0.00000634   0.00000000         -0.00     -0.93      0.00
   0.00000000   0.00000000   0.00000005          0.00      0.00      0.01


     number of scf cycles    =   4
     number of bfgs steps    =   3

     enthalpy old            =    -140.9384814589 Ry
     enthalpy new            =    -140.9403542214 Ry

     CASE: enthalpy_new < enthalpy_old

     new trust radius        =       0.0511513337 bohr
     new conv_thr            =       0.0000010000 Ry

     new unit-cell volume =  37039.73422 a.u.^3 (  5488.72226 Ang^3 )
     density =      0.28119 g/cm^3

CELL_PARAMETERS (alat= 33.68096681)
   0.998779319  -0.000000214   0.000000000
  -0.499389845   0.864968737   0.000000000
   0.000000000   0.000000000   1.122132950

ATOMIC_POSITIONS (angstrom)
Al      -0.000005721   2.559691173   0.000000000
Al       2.238939242   1.298227680   0.000000000
Al      -2.221319576   6.425849498   0.000000000
Al       0.000009042   5.135437329   0.000000000
Al      -4.458750377  10.282635703   0.000000000
Al      -2.228143368   8.994775625   0.000000000
Al      -6.680991673  14.128658136   0.000000000
Al      -4.431834685  12.852361349   0.000000000
Al       4.445562943   2.575813748   0.000000000
Al       6.731967620   1.317347186   0.000000000
Al       2.221385910   6.425864508   0.000000000
Al       4.453675914   5.136961629   0.000000000
Al      -0.000057794  10.273391695   0.000000000
Al       2.228261155   8.994707421   0.000000000
Al      -2.222034896  14.124502495   0.000000000
Al      -0.000018615  12.850975547   0.000000000
Al      11.069615406   1.317381660   0.000000000
Al       6.667723042   6.424607512   0.000000000
Al       8.900719949   5.073844715   0.000000000
Al       4.458915355  10.282700317   0.000000000
Al       6.670823315   8.974527216   0.000000000
Al       2.222151080  14.124524340   0.000000000
Al       4.431988936  12.852338880   0.000000000
Al      13.355915962   2.575897490   0.000000000
Al      15.562677384   1.298244562   0.000000000
Al      11.133942179   6.424642770   0.000000000
Al      13.347862339   5.137006920   0.000000000
Al       8.900734989  10.284197159   0.000000000
Al      11.130768066   8.974469716   0.000000000
Al       6.681155370  14.128716250   0.000000000
Al       8.900766715  12.847224329   0.000000000



     Writing output data file 17al_planar_2x2_vcr.save/
     NEW-OLD atomic charge density approx. for the potential

     negative rho (up, down):  1.152E-06 0.000E+00
     extrapolated charge   92.90411, renormalised to   93.00000

     total cpu time spent up to now is     1369.8 secs

     Self-consistent Calculation

     iteration #  1     ecut=    80.00 Ry     beta= 0.40
     Davidson diagonalization with overlap
     ethr =  1.00E-06,  avg # of iterations =  6.0

     negative rho (up, down):  5.953E-07 0.000E+00

     total cpu time spent up to now is     1406.3 secs

     total energy              =    -140.94267572 Ry
     Harris-Foulkes estimate   =    -141.41810796 Ry
     estimated scf accuracy    <       0.00050211 Ry

     iteration #  2     ecut=    80.00 Ry     beta= 0.40
     Davidson diagonalization with overlap
     ethr =  5.40E-07,  avg # of iterations =  7.0

     negative rho (up, down):  5.403E-07 0.000E+00

     total cpu time spent up to now is     1436.6 secs

     total energy              =    -140.94253424 Ry
     Harris-Foulkes estimate   =    -140.94345374 Ry
     estimated scf accuracy    <       0.00736089 Ry

     iteration #  3     ecut=    80.00 Ry     beta= 0.40
     Davidson diagonalization with overlap
     ethr =  5.40E-07,  avg # of iterations =  4.0

     negative rho (up, down):  3.649E-07 0.000E+00

     total cpu time spent up to now is     1461.3 secs

     total energy              =    -140.94296416 Ry
     Harris-Foulkes estimate   =    -140.94299220 Ry
     estimated scf accuracy    <       0.00012104 Ry

     iteration #  4     ecut=    80.00 Ry     beta= 0.40
     Davidson diagonalization with overlap
     ethr =  1.30E-07,  avg # of iterations =  4.0

     negative rho (up, down):  2.882E-07 0.000E+00

     total cpu time spent up to now is     1482.7 secs

     total energy              =    -140.94295981 Ry
     Harris-Foulkes estimate   =    -140.94298236 Ry
     estimated scf accuracy    <       0.00009844 Ry

     iteration #  5     ecut=    80.00 Ry     beta= 0.40
     Davidson diagonalization with overlap
     ethr =  1.06E-07,  avg # of iterations =  3.0

     negative rho (up, down):  1.129E-07 0.000E+00

     total cpu time spent up to now is     1503.2 secs

     total energy              =    -140.94296561 Ry
     Harris-Foulkes estimate   =    -140.94298258 Ry
     estimated scf accuracy    <       0.00010768 Ry

     iteration #  6     ecut=    80.00 Ry     beta= 0.40
     Davidson diagonalization with overlap
     ethr =  1.06E-07,  avg # of iterations =  1.0

     negative rho (up, down):  4.667E-08 0.000E+00

     total cpu time spent up to now is     1521.8 secs

     total energy              =    -140.94297258 Ry
     Harris-Foulkes estimate   =    -140.94297515 Ry
     estimated scf accuracy    <       0.00001168 Ry

     iteration #  7     ecut=    80.00 Ry     beta= 0.40
     Davidson diagonalization with overlap
     ethr =  1.26E-08,  avg # of iterations =  5.0

     negative rho (up, down):  2.831E-08 0.000E+00

     total cpu time spent up to now is     1544.3 secs

     total energy              =    -140.94297379 Ry
     Harris-Foulkes estimate   =    -140.94297689 Ry
     estimated scf accuracy    <       0.00002016 Ry

     iteration #  8     ecut=    80.00 Ry     beta= 0.40
     Davidson diagonalization with overlap
     ethr =  1.26E-08,  avg # of iterations =  3.0

     negative rho (up, down):  1.294E-08 0.000E+00

     total cpu time spent up to now is     1564.2 secs

     total energy              =    -140.94297535 Ry
     Harris-Foulkes estimate   =    -140.94297565 Ry
     estimated scf accuracy    <       0.00000128 Ry

     iteration #  9     ecut=    80.00 Ry     beta= 0.40
     Davidson diagonalization with overlap
     ethr =  1.37E-09,  avg # of iterations =  5.0

     total cpu time spent up to now is     1588.3 secs

     End of self-consistent calculation

          k = 0.0000 0.0000 0.0000 (448403 PWs)   bands (ev):

    -9.9568  -9.4511  -9.4437  -9.4437  -9.4167  -9.4167  -9.1344  -8.4018
    -8.4016  -8.3985  -8.3677  -8.3675  -8.3135  -8.2352  -8.2352  -7.5799
    -6.9330  -6.9330  -6.8233  -6.4777  -6.4775  -6.4588  -6.3819  -6.3818
    -5.5051  -4.8243  -4.8178  -4.8178  -4.7379  -4.7378  -4.4686  -4.4615
    -4.4450  -4.4449  -4.1435  -4.1434  -3.9792  -3.4712  -3.4688  -3.4687
    -3.4550  -3.4549  -3.3875  -3.2898  -3.2646  -3.2646  -3.2157  -2.9603
    -2.9514  -2.9513  -2.9357  -2.5008  -2.5008  -2.4446  -2.4282  -2.4276

     the Fermi energy is    -3.0894 ev

!    total energy              =    -140.94297517 Ry
     Harris-Foulkes estimate   =    -140.94297554 Ry
     estimated scf accuracy    <       0.00000058 Ry

     The total energy is the sum of the following terms:

     one-electron contribution =    -502.78927782 Ry
     hartree contribution      =     260.13612371 Ry
     xc contribution           =     -61.32359889 Ry
     ewald contribution        =     163.11167643 Ry
     smearing contrib. (-TS)   =      -0.07789860 Ry

     convergence has been achieved in   9 iterations

     Forces acting on atoms (cartesian axes, Ry/au):

     atom    1 type  1   force =    -0.00000804   -0.00207657    0.00000000
     atom    2 type  1   force =     0.00084442   -0.00040459    0.00000000
     atom    3 type  1   force =    -0.00011261   -0.00002228    0.00000000
     atom    4 type  1   force =     0.00004173   -0.00188393    0.00000000
     atom    5 type  1   force =    -0.00179772    0.00104370    0.00000000
     atom    6 type  1   force =    -0.00160386    0.00093122    0.00000000
     atom    7 type  1   force =     0.00107319    0.00059078    0.00000000
     atom    8 type  1   force =     0.00005459    0.00095324    0.00000000
     atom    9 type  1   force =     0.00503525   -0.00170021    0.00000000
     atom   10 type  1   force =     0.01284891    0.00744488    0.00000000
     atom   11 type  1   force =     0.00008017   -0.00001665    0.00000000
     atom   12 type  1   force =    -0.00067691    0.00037770    0.00000000
     atom   13 type  1   force =    -0.00000745    0.00010963    0.00000000
     atom   14 type  1   force =     0.00163434    0.00090606    0.00000000
     atom   15 type  1   force =     0.00103220    0.00518149    0.00000000
     atom   16 type  1   force =     0.00000116   -0.00079004    0.00000000
     atom   17 type  1   force =    -0.01286156    0.00744277    0.00000000
     atom   18 type  1   force =     0.00397614   -0.00346370    0.00000000
     atom   19 type  1   force =    -0.00000634   -0.01486189    0.00000000
     atom   20 type  1   force =     0.00177162    0.00103359    0.00000000
     atom   21 type  1   force =     0.00079226   -0.00055105    0.00000000
     atom   22 type  1   force =    -0.00105651    0.00518567    0.00000000
     atom   23 type  1   force =    -0.00004057    0.00093342    0.00000000
     atom   24 type  1   force =    -0.00501898   -0.00169278    0.00000000
     atom   25 type  1   force =    -0.00083851   -0.00042346    0.00000000
     atom   26 type  1   force =    -0.00397871   -0.00346453    0.00000000
     atom   27 type  1   force =     0.00067986    0.00037189    0.00000000
     atom   28 type  1   force =     0.00001466   -0.00123152    0.00000000
     atom   29 type  1   force =    -0.00080704   -0.00053284    0.00000000
     atom   30 type  1   force =    -0.00107016    0.00061991    0.00000000
     atom   31 type  1   force =     0.00000445   -0.00000992    0.00000000

     Total force =     0.029414     Total SCF correction =     0.000485


     Computing stress (Cartesian axis) and pressure

          total   stress  (Ry/bohr**3)                   (kbar)     P=   -0.65
  -0.00000667  -0.00000002   0.00000000         -0.98     -0.00      0.00
  -0.00000002  -0.00000671   0.00000000         -0.00     -0.99      0.00
   0.00000000   0.00000000   0.00000003          0.00      0.00      0.00


     number of scf cycles    =   5
     number of bfgs steps    =   4

     enthalpy old            =    -140.9403542214 Ry
     enthalpy new            =    -140.9429751749 Ry

     CASE: enthalpy_new < enthalpy_old

     new trust radius        =       0.0766874551 bohr
     new conv_thr            =       0.0000010000 Ry

     new unit-cell volume =  36982.05475 a.u.^3 (  5480.17504 Ang^3 )
     density =      0.28163 g/cm^3

CELL_PARAMETERS (alat= 33.68096681)
   0.998001680  -0.000000870   0.000000000
  -0.499001594   0.864295039   0.000000000
   0.000000000   0.000000000   1.122132950

ATOMIC_POSITIONS (angstrom)
Al      -0.000011643   2.551699449   0.000000000
Al       2.244605969   1.303921929   0.000000000
Al      -2.217670138   6.421990914   0.000000000
Al       0.000022054   5.128767746   0.000000000
Al      -4.460451539  10.277626262   0.000000000
Al      -2.228723095   8.989116711   0.000000000
Al      -6.678064296  14.116275262   0.000000000
Al      -4.418923501  12.845437647   0.000000000
Al       4.442125587   2.576181843   0.000000000
Al       6.761826250   1.336618849   0.000000000
Al       2.217725794   6.422003734   0.000000000
Al       4.451551914   5.132143587   0.000000000
Al      -0.000117770  10.263185670   0.000000000
Al       2.228860850   8.988979973   0.000000000
Al      -2.218233686  14.112271057   0.000000000
Al      -0.000063543  12.842521323   0.000000000
Al      11.025901655   1.336652837   0.000000000
Al       6.660490605   6.418386248   0.000000000
Al       8.893740065   5.029360358   0.000000000
Al       4.460642778  10.277691040   0.000000000
Al       6.663544134   8.957812822   0.000000000
Al       2.218320115  14.112293302   0.000000000
Al       4.419085871  12.845367084   0.000000000
Al      13.345477536   2.576296459   0.000000000
Al      15.543182113   1.303900179   0.000000000
Al      11.127366907   6.418439606   0.000000000
Al      13.336095266   5.132184933   0.000000000
Al       8.893780539  10.278839292   0.000000000
Al      11.124147878   8.957717616   0.000000000
Al       6.678258324  14.116348290   0.000000000
Al       8.893800480  12.837191839   0.000000000



     Writing output data file 17al_planar_2x2_vcr.save/
     NEW-OLD atomic charge density approx. for the potential

     negative rho (up, down):  1.733E-06 0.000E+00
     extrapolated charge   92.85507, renormalised to   93.00000

     total cpu time spent up to now is     1672.7 secs

     Self-consistent Calculation

     iteration #  1     ecut=    80.00 Ry     beta= 0.40
     Davidson diagonalization with overlap
     ethr =  1.00E-06,  avg # of iterations =  8.0

     negative rho (up, down):  9.093E-07 0.000E+00

     total cpu time spent up to now is     1713.0 secs

     total energy              =    -140.94623073 Ry
     Harris-Foulkes estimate   =    -141.66550142 Ry
     estimated scf accuracy    <       0.00074928 Ry

     iteration #  2     ecut=    80.00 Ry     beta= 0.40
     Davidson diagonalization with overlap
     ethr =  8.06E-07,  avg # of iterations =  6.0

     negative rho (up, down):  8.172E-07 0.000E+00

     total cpu time spent up to now is     1742.9 secs

     total energy              =    -140.94626987 Ry
     Harris-Foulkes estimate   =    -140.94722689 Ry
     estimated scf accuracy    <       0.00710711 Ry

     iteration #  3     ecut=    80.00 Ry     beta= 0.40
     Davidson diagonalization with overlap
     ethr =  8.06E-07,  avg # of iterations =  5.0

     negative rho (up, down):  5.564E-07 0.000E+00

     total cpu time spent up to now is     1766.6 secs

     total energy              =    -140.94670343 Ry
     Harris-Foulkes estimate   =    -140.94675495 Ry
     estimated scf accuracy    <       0.00023793 Ry

     iteration #  4     ecut=    80.00 Ry     beta= 0.40
     Davidson diagonalization with overlap
     ethr =  2.56E-07,  avg # of iterations =  3.0

     negative rho (up, down):  3.949E-07 0.000E+00

     total cpu time spent up to now is     1786.0 secs

     total energy              =    -140.94669922 Ry
     Harris-Foulkes estimate   =    -140.94672753 Ry
     estimated scf accuracy    <       0.00013042 Ry

     iteration #  5     ecut=    80.00 Ry     beta= 0.40
     Davidson diagonalization with overlap
     ethr =  1.40E-07,  avg # of iterations =  4.0

     negative rho (up, down):  1.339E-07 0.000E+00

     total cpu time spent up to now is     1806.6 secs

     total energy              =    -140.94668719 Ry
     Harris-Foulkes estimate   =    -140.94674116 Ry
     estimated scf accuracy    <       0.00034645 Ry

     iteration #  6     ecut=    80.00 Ry     beta= 0.40
     Davidson diagonalization with overlap
     ethr =  1.40E-07,  avg # of iterations =  4.0

     negative rho (up, down):  5.528E-08 0.000E+00

     total cpu time spent up to now is     1828.8 secs

     total energy              =    -140.94671367 Ry
     Harris-Foulkes estimate   =    -140.94671835 Ry
     estimated scf accuracy    <       0.00002750 Ry

     iteration #  7     ecut=    80.00 Ry     beta= 0.40
     Davidson diagonalization with overlap
     ethr =  2.96E-08,  avg # of iterations =  4.0

     negative rho (up, down):  3.605E-08 0.000E+00

     total cpu time spent up to now is     1851.7 secs

     total energy              =    -140.94671685 Ry
     Harris-Foulkes estimate   =    -140.94671816 Ry
     estimated scf accuracy    <       0.00000794 Ry

     iteration #  8     ecut=    80.00 Ry     beta= 0.40
     Davidson diagonalization with overlap
     ethr =  8.53E-09,  avg # of iterations =  4.0

     negative rho (up, down):  1.166E-08 0.000E+00

     total cpu time spent up to now is     1875.2 secs

     total energy              =    -140.94671743 Ry
     Harris-Foulkes estimate   =    -140.94671893 Ry
     estimated scf accuracy    <       0.00000941 Ry

     iteration #  9     ecut=    80.00 Ry     beta= 0.40
     Davidson diagonalization with overlap
     ethr =  8.53E-09,  avg # of iterations =  1.0

     total cpu time spent up to now is     1893.9 secs

     total energy              =    -140.94671801 Ry
     Harris-Foulkes estimate   =    -140.94671831 Ry
     estimated scf accuracy    <       0.00000225 Ry

     iteration # 10     ecut=    80.00 Ry     beta= 0.40
     Davidson diagonalization with overlap
     ethr =  2.42E-09,  avg # of iterations =  4.0

     total cpu time spent up to now is     1915.6 secs

     total energy              =    -140.94671793 Ry
     Harris-Foulkes estimate   =    -140.94671827 Ry
     estimated scf accuracy    <       0.00000275 Ry

     iteration # 11     ecut=    80.00 Ry     beta= 0.40
     Davidson diagonalization with overlap
     ethr =  2.42E-09,  avg # of iterations =  1.0

     total cpu time spent up to now is     1935.0 secs

     End of self-consistent calculation

          k = 0.0000 0.0000 0.0000 (448403 PWs)   bands (ev):

    -9.9592  -9.4528  -9.4502  -9.4502  -9.4108  -9.4108  -9.1295  -8.4063
    -8.4008  -8.4008  -8.3597  -8.3596  -8.3181  -8.2190  -8.2189  -7.5778
    -6.9337  -6.9336  -6.8248  -6.4763  -6.4762  -6.4440  -6.3856  -6.3855
    -5.5294  -4.8170  -4.8051  -4.8050  -4.7355  -4.7354  -4.4633  -4.4569
    -4.4459  -4.4458  -4.1558  -4.1558  -3.9800  -3.4718  -3.4718  -3.4713
    -3.4499  -3.4498  -3.3778  -3.3419  -3.2585  -3.2585  -3.2132  -2.9656
    -2.9423  -2.9422  -2.9160  -2.4904  -2.4903  -2.4498  -2.4175  -2.4171

     the Fermi energy is    -3.0878 ev

!    total energy              =    -140.94671750 Ry
     Harris-Foulkes estimate   =    -140.94671805 Ry
     estimated scf accuracy    <       0.00000066 Ry

     The total energy is the sum of the following terms:

     one-electron contribution =    -503.27805744 Ry
     hartree contribution      =     260.37636237 Ry
     xc contribution           =     -61.31726427 Ry
     ewald contribution        =     163.34766717 Ry
     smearing contrib. (-TS)   =      -0.07542533 Ry

     convergence has been achieved in  11 iterations

     Forces acting on atoms (cartesian axes, Ry/au):

     atom    1 type  1   force =    -0.00000150   -0.00197970    0.00000000
     atom    2 type  1   force =    -0.00060539   -0.00243045    0.00000000
     atom    3 type  1   force =    -0.00064632   -0.00030289    0.00000000
     atom    4 type  1   force =     0.00003850   -0.00252258    0.00000000
     atom    5 type  1   force =    -0.00171171    0.00100580    0.00000000
     atom    6 type  1   force =    -0.00214293    0.00122195    0.00000000
     atom    7 type  1   force =     0.00239403    0.00135402    0.00000000
     atom    8 type  1   force =    -0.00241414    0.00071958    0.00000000
     atom    9 type  1   force =     0.00879953   -0.00361888    0.00000000
     atom   10 type  1   force =     0.01312220    0.00760508    0.00000000
     atom   11 type  1   force =     0.00057822   -0.00034002    0.00000000
     atom   12 type  1   force =    -0.00142718    0.00084885    0.00000000
     atom   13 type  1   force =    -0.00003946    0.00069873    0.00000000
     atom   14 type  1   force =     0.00219107    0.00123823    0.00000000
     atom   15 type  1   force =     0.00122563    0.00939965    0.00000000
     atom   16 type  1   force =     0.00003427   -0.00169703    0.00000000
     atom   17 type  1   force =    -0.01314430    0.00759186    0.00000000
     atom   18 type  1   force =     0.00750945   -0.00576381    0.00000000
     atom   19 type  1   force =    -0.00000012   -0.01516625    0.00000000
     atom   20 type  1   force =     0.00170202    0.00099998    0.00000000
     atom   21 type  1   force =     0.00181332    0.00167575    0.00000000
     atom   22 type  1   force =    -0.00128973    0.00939344    0.00000000
     atom   23 type  1   force =     0.00242451    0.00069515    0.00000000
     atom   24 type  1   force =    -0.00877074   -0.00359792    0.00000000
     atom   25 type  1   force =     0.00060094   -0.00244300    0.00000000
     atom   26 type  1   force =    -0.00752957   -0.00577496    0.00000000
     atom   27 type  1   force =     0.00147878    0.00083874    0.00000000
     atom   28 type  1   force =     0.00003600   -0.00275726    0.00000000
     atom   29 type  1   force =    -0.00184692    0.00172557    0.00000000
     atom   30 type  1   force =    -0.00239648    0.00138672    0.00000000
     atom   31 type  1   force =     0.00001802   -0.00000435    0.00000000

     Total force =     0.036489     Total SCF correction =     0.000673


     Computing stress (Cartesian axis) and pressure

          total   stress  (Ry/bohr**3)                   (kbar)     P=   -0.70
  -0.00000716  -0.00000003   0.00000000         -1.05     -0.00      0.00
  -0.00000003  -0.00000721   0.00000000         -0.00     -1.06      0.00
   0.00000000   0.00000000   0.00000001          0.00      0.00      0.00


     number of scf cycles    =   6
     number of bfgs steps    =   5

     enthalpy old            =    -140.9429751749 Ry
     enthalpy new            =    -140.9467175033 Ry

     CASE: enthalpy_new < enthalpy_old

     new trust radius        =       0.1149415361 bohr
     new conv_thr            =       0.0000010000 Ry

     new unit-cell volume =  36895.33368 a.u.^3 (  5467.32430 Ang^3 )
     density =      0.28229 g/cm^3

CELL_PARAMETERS (alat= 33.68096681)
   0.996831420  -0.000002011   0.000000000
  -0.498417452   0.863281166   0.000000000
   0.000000000   0.000000000   1.122132950

ATOMIC_POSITIONS (angstrom)
Al      -0.000014666   2.539783613   0.000000000
Al       2.252537391   1.311762032   0.000000000
Al      -2.212358233   6.416090791   0.000000000
Al       0.000030963   5.118563055   0.000000000
Al      -4.462913282  10.270037519   0.000000000
Al      -2.229738281   8.980667902   0.000000000
Al      -6.673221396  14.097894914   0.000000000
Al      -4.400417550  12.834869592   0.000000000
Al       4.438212707   2.576062873   0.000000000
Al       6.806485856   1.365459661   0.000000000
Al       2.212379973   6.416071784   0.000000000
Al       4.448124630   5.125049005   0.000000000
Al      -0.000232386  10.248021536   0.000000000
Al       2.229910931   8.980454333   0.000000000
Al      -2.212480661  14.095291088   0.000000000
Al      -0.000115219  12.829508129   0.000000000
Al      10.960388443   1.365486379   0.000000000
Al       6.650814601   6.408257425   0.000000000
Al       8.883237708   4.962743558   0.000000000
Al       4.463160058  10.270106006   0.000000000
Al       6.652913803   8.933519262   0.000000000
Al       2.212497666  14.095306420   0.000000000
Al       4.400583854  12.834723728   0.000000000
Al      13.328510982   2.576232301   0.000000000
Al      15.514433691   1.311685361   0.000000000
Al      11.116255809   6.408332046   0.000000000
Al      13.318644903   5.125081258   0.000000000
Al       8.883322557  10.270267754   0.000000000
Al      11.113847189   8.933380184   0.000000000
Al       6.673456323  14.097986363   0.000000000
Al       8.883321097  12.822095695   0.000000000



     Writing output data file 17al_planar_2x2_vcr.save/
     NEW-OLD atomic charge density approx. for the potential

     negative rho (up, down):  2.657E-06 0.000E+00
     extrapolated charge   92.78159, renormalised to   93.00000

     total cpu time spent up to now is     2021.8 secs

     Self-consistent Calculation

     iteration #  1     ecut=    80.00 Ry     beta= 0.40
     Davidson diagonalization with overlap
     ethr =  1.00E-06,  avg # of iterations = 13.0

     negative rho (up, down):  1.425E-06 0.000E+00

     total cpu time spent up to now is     2068.0 secs

     total energy              =    -140.95104770 Ry
     Harris-Foulkes estimate   =    -142.03688378 Ry
     estimated scf accuracy    <       0.00157704 Ry

     iteration #  2     ecut=    80.00 Ry     beta= 0.40
     Davidson diagonalization with overlap
     ethr =  1.70E-06,  avg # of iterations = 17.0

     negative rho (up, down):  1.279E-06 0.000E+00

     total cpu time spent up to now is     2103.6 secs

     total energy              =    -140.95111632 Ry
     Harris-Foulkes estimate   =    -140.95312046 Ry
     estimated scf accuracy    <       0.01435032 Ry

     iteration #  3     ecut=    80.00 Ry     beta= 0.40
     Davidson diagonalization with overlap
     ethr =  1.70E-06,  avg # of iterations = 18.0

     negative rho (up, down):  9.389E-07 0.000E+00

     total cpu time spent up to now is     2138.2 secs

     total energy              =    -140.95187836 Ry
     Harris-Foulkes estimate   =    -140.95202929 Ry
     estimated scf accuracy    <       0.00069447 Ry

     iteration #  4     ecut=    80.00 Ry     beta= 0.40
     Davidson diagonalization with overlap
     ethr =  7.47E-07,  avg # of iterations =  1.0

     negative rho (up, down):  5.665E-07 0.000E+00

     total cpu time spent up to now is     2157.8 secs

     total energy              =    -140.95189130 Ry
     Harris-Foulkes estimate   =    -140.95194283 Ry
     estimated scf accuracy    <       0.00031744 Ry

     iteration #  5     ecut=    80.00 Ry     beta= 0.40
     Davidson diagonalization with overlap
     ethr =  3.41E-07,  avg # of iterations =  1.0

     negative rho (up, down):  3.262E-07 0.000E+00

     total cpu time spent up to now is     2177.2 secs

     total energy              =    -140.95186395 Ry
     Harris-Foulkes estimate   =    -140.95193012 Ry
     estimated scf accuracy    <       0.00029997 Ry

     iteration #  6     ecut=    80.00 Ry     beta= 0.40
     Davidson diagonalization with overlap
     ethr =  3.23E-07,  avg # of iterations =  1.0

     negative rho (up, down):  8.229E-08 0.000E+00

     total cpu time spent up to now is     2195.9 secs

     total energy              =    -140.95188927 Ry
     Harris-Foulkes estimate   =    -140.95192602 Ry
     estimated scf accuracy    <       0.00024501 Ry

     iteration #  7     ecut=    80.00 Ry     beta= 0.40
     Davidson diagonalization with overlap
     ethr =  2.63E-07,  avg # of iterations =  1.0

     negative rho (up, down):  5.590E-08 0.000E+00

     total cpu time spent up to now is     2215.3 secs

     total energy              =    -140.95190866 Ry
     Harris-Foulkes estimate   =    -140.95191249 Ry
     estimated scf accuracy    <       0.00001828 Ry

     iteration #  8     ecut=    80.00 Ry     beta= 0.40
     Davidson diagonalization with overlap
     ethr =  1.97E-08,  avg # of iterations =  5.0

     negative rho (up, down):  2.784E-08 0.000E+00

     total cpu time spent up to now is     2241.5 secs

     total energy              =    -140.95191061 Ry
     Harris-Foulkes estimate   =    -140.95191523 Ry
     estimated scf accuracy    <       0.00002594 Ry

     iteration #  9     ecut=    80.00 Ry     beta= 0.40
     Davidson diagonalization with overlap
     ethr =  1.97E-08,  avg # of iterations =  2.0

     negative rho (up, down):  1.113E-08 0.000E+00

     total cpu time spent up to now is     2262.1 secs

     total energy              =    -140.95191078 Ry
     Harris-Foulkes estimate   =    -140.95191198 Ry
     estimated scf accuracy    <       0.00000584 Ry

     iteration # 10     ecut=    80.00 Ry     beta= 0.40
     Davidson diagonalization with overlap
     ethr =  6.28E-09,  avg # of iterations =  5.0

     total cpu time spent up to now is     2284.5 secs

     total energy              =    -140.95191019 Ry
     Harris-Foulkes estimate   =    -140.95191147 Ry
     estimated scf accuracy    <       0.00000909 Ry

     iteration # 11     ecut=    80.00 Ry     beta= 0.40
     Davidson diagonalization with overlap
     ethr =  6.28E-09,  avg # of iterations =  1.0

     total cpu time spent up to now is     2303.9 secs

     total energy              =    -140.95191013 Ry
     Harris-Foulkes estimate   =    -140.95191056 Ry
     estimated scf accuracy    <       0.00000160 Ry

     iteration # 12     ecut=    80.00 Ry     beta= 0.40
     Davidson diagonalization with overlap
     ethr =  1.72E-09,  avg # of iterations =  5.0

     total cpu time spent up to now is     2328.7 secs

     End of self-consistent calculation

          k = 0.0000 0.0000 0.0000 (448403 PWs)   bands (ev):

    -9.9647  -9.4615  -9.4612  -9.4568  -9.4053  -9.4053  -9.1264  -8.4192
    -8.4040  -8.4039  -8.3507  -8.3504  -8.3257  -8.1937  -8.1934  -7.5794
    -6.9368  -6.9366  -6.8304  -6.4755  -6.4754  -6.4253  -6.3907  -6.3906
    -5.5677  -4.8095  -4.7924  -4.7922  -4.7296  -4.7295  -4.4570  -4.4514
    -4.4492  -4.4491  -4.1757  -4.1756  -3.9824  -3.4776  -3.4774  -3.4723
    -3.4439  -3.4439  -3.4232  -3.3639  -3.2523  -3.2522  -3.2124  -2.9754
    -2.9299  -2.9299  -2.8858  -2.4781  -2.4780  -2.4581  -2.4392  -2.4384

     the Fermi energy is    -3.0876 ev

!    total energy              =    -140.95190941 Ry
     Harris-Foulkes estimate   =    -140.95191000 Ry
     estimated scf accuracy    <       0.00000067 Ry

     The total energy is the sum of the following terms:

     one-electron contribution =    -504.02868217 Ry
     hartree contribution      =     260.74252379 Ry
     xc contribution           =     -61.30903099 Ry
     ewald contribution        =     163.71571958 Ry
     smearing contrib. (-TS)   =      -0.07243961 Ry

     convergence has been achieved in  12 iterations

     Forces acting on atoms (cartesian axes, Ry/au):

     atom    1 type  1   force =     0.00006160   -0.00249491    0.00000000
     atom    2 type  1   force =    -0.00290782   -0.00510609    0.00000000
     atom    3 type  1   force =    -0.00156241   -0.00091527    0.00000000
     atom    4 type  1   force =    -0.00003239   -0.00292243    0.00000000
     atom    5 type  1   force =    -0.00220839    0.00129800    0.00000000
     atom    6 type  1   force =    -0.00253125    0.00140659    0.00000000
     atom    7 type  1   force =     0.00404999    0.00239642    0.00000000
     atom    8 type  1   force =    -0.00580554    0.00002386    0.00000000
     atom    9 type  1   force =     0.01412191   -0.00631647    0.00000000
     atom   10 type  1   force =     0.01335757    0.00767329    0.00000000
     atom   11 type  1   force =     0.00163605   -0.00096941    0.00000000
     atom   12 type  1   force =    -0.00301281    0.00178494    0.00000000
     atom   13 type  1   force =     0.00011857    0.00183068    0.00000000
     atom   14 type  1   force =     0.00247936    0.00156240    0.00000000
     atom   15 type  1   force =     0.00156633    0.01541551    0.00000000
     atom   16 type  1   force =     0.00004321   -0.00348440    0.00000000
     atom   17 type  1   force =    -0.01334718    0.00766466    0.00000000
     atom   18 type  1   force =     0.01248480   -0.00901951    0.00000000
     atom   19 type  1   force =     0.00006765   -0.01540294    0.00000000
     atom   20 type  1   force =     0.00213706    0.00122344    0.00000000
     atom   21 type  1   force =     0.00296868    0.00495968    0.00000000
     atom   22 type  1   force =    -0.00156690    0.01538493    0.00000000
     atom   23 type  1   force =     0.00578677    0.00011302    0.00000000
     atom   24 type  1   force =    -0.01404695   -0.00642127    0.00000000
     atom   25 type  1   force =     0.00275785   -0.00505536    0.00000000
     atom   26 type  1   force =    -0.01261360   -0.00905341    0.00000000
     atom   27 type  1   force =     0.00303544    0.00176975    0.00000000
     atom   28 type  1   force =     0.00000968   -0.00470683    0.00000000
     atom   29 type  1   force =    -0.00296864    0.00500886    0.00000000
     atom   30 type  1   force =    -0.00407028    0.00234226    0.00000000
     atom   31 type  1   force =    -0.00000837    0.00001002    0.00000000

     Total force =     0.050068     Total SCF correction =     0.000644


     Computing stress (Cartesian axis) and pressure

          total   stress  (Ry/bohr**3)                   (kbar)     P=   -0.77
  -0.00000786   0.00000002   0.00000000         -1.16      0.00      0.00
   0.00000002  -0.00000787   0.00000000          0.00     -1.16      0.00
   0.00000000   0.00000000   0.00000002          0.00      0.00      0.00


     number of scf cycles    =   7
     number of bfgs steps    =   6

     enthalpy old            =    -140.9467175033 Ry
     enthalpy new            =    -140.9519094089 Ry

     CASE: enthalpy_new < enthalpy_old

     new trust radius        =       0.1722099135 bohr
     new conv_thr            =       0.0000010000 Ry

     new unit-cell volume =  36764.94397 a.u.^3 (  5448.00254 Ang^3 )
     density =      0.28329 g/cm^3

CELL_PARAMETERS (alat= 33.68096681)
   0.995068376  -0.000001945   0.000000000
  -0.497535872   0.861754403   0.000000000
   0.000000000   0.000000000   1.122132950

ATOMIC_POSITIONS (angstrom)
Al       0.000027858   2.521563903   0.000000000
Al       2.263589516   1.322812297   0.000000000
Al      -2.204670398   6.406953578   0.000000000
Al      -0.000001213   5.103338383   0.000000000
Al      -4.466870569  10.258771741   0.000000000
Al      -2.231166982   8.967880034   0.000000000
Al      -6.665506809  14.070502610   0.000000000
Al      -4.373580005  12.818539662   0.000000000
Al       4.433818567   2.575099804   0.000000000
Al       6.873213833   1.408555005   0.000000000
Al       2.204770975   6.406890499   0.000000000
Al       4.442347591   5.114744711   0.000000000
Al      -0.000280113  10.225632336   0.000000000
Al       2.231351511   8.967643350   0.000000000
Al      -2.203710476  14.071465763   0.000000000
Al      -0.000173743  12.809246223   0.000000000
Al      10.862275185   1.408584550   0.000000000
Al       6.637678154   6.392116280   0.000000000
Al       8.867465885   4.863076744   0.000000000
Al       4.467204323  10.258818442   0.000000000
Al       6.637122028   8.898095717   0.000000000
Al       2.203727934  14.071464301   0.000000000
Al       4.373777405  12.818372932   0.000000000
Al      13.301480728   2.575284202   0.000000000
Al      15.471931655   1.322718351   0.000000000
Al      11.098036307   6.392219327   0.000000000
Al      13.292956672   5.114777653   0.000000000
Al       8.867559633  10.256912765   0.000000000
Al      11.098163807   8.897885007   0.000000000
Al       6.665846503  14.070583360   0.000000000
Al       8.867533811  12.799401617   0.000000000



     Writing output data file 17al_planar_2x2_vcr.save/
     NEW-OLD atomic charge density approx. for the potential

     negative rho (up, down):  4.382E-06 0.000E+00
[...]


     bfgs converged in 220 scf cycles and 216 bfgs steps
     (criteria: energy <  1.0E-05 Ry, force <  1.0E-04Ry/Bohr, cell <  5.0E-05kbar)

     End of BFGS Geometry Optimization

     Final enthalpy =    -142.2701674721 Ry
Begin final coordinates
     new unit-cell volume =  26092.95563 a.u.^3 (  3866.57705 Ang^3 )
     density =      0.39916 g/cm^3

CELL_PARAMETERS (alat= 33.68096681)
   0.838295183   0.000300921   0.000000000
  -0.419411643   0.725835605   0.000000000
   0.000000000   0.000000000   1.122132950

ATOMIC_POSITIONS (angstrom)
Al      -1.686415857  -0.904899959   0.000000000
Al       2.650607514   0.766279945   0.000000000
Al      -1.930032157   6.190735501   0.000000000
Al       1.685890632   3.270412262   0.000000000
Al      -5.545997594   9.111180910   0.000000000
Al      -2.895041757   8.694732777   0.000000000
Al      -6.510753560  11.615295189   0.000000000
Al      -3.859892362  11.198827412   0.000000000
Al       4.336786792   2.853933974   0.000000000
Al       6.987703268   2.437393819   0.000000000
Al       0.721039196   5.774520848   0.000000000
Al       3.371950025   5.358101917   0.000000000
Al      -0.244033346   8.278516615   0.000000000
Al       2.406990427   7.862213510   0.000000000
Al      -2.173724298  13.286531699   0.000000000
Al      -1.209006286  10.782470832   0.000000000
Al       9.638714394   2.020851857   0.000000000
Al       6.022861382   4.941484029   0.000000000
Al       8.673860398   4.524906259   0.000000000
Al       4.093185095   9.949717799   0.000000000
Al       5.057964600   7.445642586   0.000000000
Al       0.477317007  12.870085998   0.000000000
Al       1.442053384  10.366196867   0.000000000
Al      12.289831851   1.604460922   0.000000000
Al      14.940826734   1.188073444   0.000000000
Al      11.324945650   4.108400908   0.000000000
Al      13.976002309   3.692174179   0.000000000
Al       7.708971646   7.028959019   0.000000000
Al      10.359976962   6.612443990   0.000000000
Al       3.128354408  12.453622152   0.000000000
Al       6.744186329   9.533084705   0.000000000
End final coordinates



     Writing output data file 17al_planar_2x2_vcr.save/

     A final scf calculation at the relaxed structure.
     The G-vectors are recalculated for the final unit cell
     Results may differ from those at the preceding step.
 
     Parallelization info
     --------------------
     sticks:   dense  smooth     PW     G-vecs:    dense   smooth      PW
     Min        2198    2198    550               315308   315308   39402
     Max        2199    2199    551               315317   315317   39407
     Sum       17587   17587   4405              2522505  2522505  315231
 


     bravais-lattice index     =            4
     lattice parameter (alat)  =      33.6810  a.u.
     unit-cell volume          =   26092.9556 (a.u.)^3
     number of atoms/cell      =           31
     number of atomic types    =            1
     number of electrons       =        93.00
     number of Kohn-Sham states=           56
     kinetic-energy cutoff     =      80.0000  Ry
     charge density cutoff     =     320.0000  Ry
     convergence threshold     =      1.0E-08
     mixing beta               =       0.4000
     number of iterations used =            8  plain     mixing
     Exchange-correlation      = PBE ( 1  4  3  4 0 0)

     celldm(1)=  33.680967  celldm(2)=   0.000000  celldm(3)=   1.122133
     celldm(4)=   0.000000  celldm(5)=   0.000000  celldm(6)=   0.000000

     crystal axes: (cart. coord. in units of alat)
               a(1) = (   0.838295   0.000301   0.000000 )  
               a(2) = (  -0.419412   0.725836   0.000000 )  
               a(3) = (   0.000000   0.000000   1.122133 )  

     reciprocal axes: (cart. coord. in units 2 pi/alat)
               b(1) = (  1.192650  0.689152  0.000000 )  
               b(2) = ( -0.000494  1.377437  0.000000 )  
               b(3) = (  0.000000  0.000000  0.891160 )  


     PseudoPot. # 1 for Al read from file:
     ./Al.upf
     MD5 check sum: 4974d48a734c9d7d1eb6780a1419d19d
     Pseudo is Norm-conserving + core correction, Zval =  3.0
     Generated using ONCVPSP code by D. R. Hamann
     Using radial grid of 1876 points,  6 beta functions with: 
                l(1) =   0
                l(2) =   0
                l(3) =   1
                l(4) =   1
                l(5) =   2
                l(6) =   2

     atomic species   valence    mass     pseudopotential
        Al             3.00    29.98200     Al( 1.00)

      2 Sym. Ops. (no inversion) found



   Cartesian axes

     site n.     atom                  positions (alat units)
         1           Al  tau(   1) = (  -0.0946191  -0.0507709   0.0000000  )
         2           Al  tau(   2) = (   0.1487167   0.0429934   0.0000000  )
         3           Al  tau(   3) = (  -0.1082876   0.3473414   0.0000000  )
         4           Al  tau(   4) = (   0.0945897   0.1834919   0.0000000  )
         5           Al  tau(   5) = (  -0.3111673   0.5111978   0.0000000  )
         6           Al  tau(   6) = (  -0.1624311   0.4878323   0.0000000  )
         7           Al  tau(   7) = (  -0.3652966   0.6516953   0.0000000  )
         8           Al  tau(   8) = (  -0.2165656   0.6283287   0.0000000  )
         9           Al  tau(   9) = (   0.2433226   0.1601247   0.0000000  )
        10           Al  tau(  10) = (   0.3920566   0.1367540   0.0000000  )
        11           Al  tau(  11) = (   0.0404551   0.3239890   0.0000000  )
        12           Al  tau(  12) = (   0.1891888   0.3006251   0.0000000  )
        13           Al  tau(  13) = (  -0.0136919   0.4644798   0.0000000  )
        14           Al  tau(  14) = (   0.1350482   0.4411224   0.0000000  )
        15           Al  tau(  15) = (  -0.1219604   0.7454628   0.0000000  )
        16           Al  tau(  16) = (  -0.0678333   0.6049683   0.0000000  )
        17           Al  tau(  17) = (   0.5407960   0.1133832   0.0000000  )
        18           Al  tau(  18) = (   0.3379226   0.2772501   0.0000000  )
        19           Al  tau(  19) = (   0.4866612   0.2538773   0.0000000  )
        20           Al  tau(  20) = (   0.2296549   0.5582453   0.0000000  )
        21           Al  tau(  21) = (   0.2837854   0.4177500   0.0000000  )
        22           Al  tau(  22) = (   0.0267807   0.7220974   0.0000000  )
        23           Al  tau(  23) = (   0.0809088   0.5816126   0.0000000  )
        24           Al  tau(  24) = (   0.6895413   0.0900209   0.0000000  )
        25           Al  tau(  25) = (   0.8382797   0.0666588   0.0000000  )
        26           Al  tau(  26) = (   0.6354047   0.2305086   0.0000000  )
        27           Al  tau(  27) = (   0.7841466   0.2071555   0.0000000  )
        28           Al  tau(  28) = (   0.4325246   0.3943713   0.0000000  )
        29           Al  tau(  29) = (   0.5812636   0.3710021   0.0000000  )
        30           Al  tau(  30) = (   0.1755215   0.6987310   0.0000000  )
        31           Al  tau(  31) = (   0.3783937   0.5348694   0.0000000  )

     number of k points=     1  Methfessel-Paxton smearing, width (Ry)=  0.0500
                       cart. coord. in units 2pi/alat
        k(    1) = (   0.0000000   0.0000000   0.0000000), wk =   2.0000000

     Dense  grid:  2522505 G-vectors     FFT dimensions: ( 162, 162, 216)

     Estimated max dynamical RAM per process >     839.98 MB

     Estimated total dynamical RAM >       6.56 GB

     Initial potential from superposition of free atoms

     starting charge   92.92414, renormalised to   93.00000

     negative rho (up, down):  7.271E-05 0.000E+00
     Starting wfcs are  124 randomized atomic wfcs

     total cpu time spent up to now is    77236.7 secs

     Self-consistent Calculation

     iteration #  1     ecut=    80.00 Ry     beta= 0.40
     Davidson diagonalization with overlap
     ethr =  1.00E-06,  avg # of iterations =  9.0

     negative rho (up, down):  1.170E-05 0.000E+00

     total cpu time spent up to now is    77280.6 secs

     total energy              =    -142.21848756 Ry
     Harris-Foulkes estimate   =    -142.58377872 Ry
     estimated scf accuracy    <       1.01215562 Ry

     iteration #  2     ecut=    80.00 Ry     beta= 0.40
     Davidson diagonalization with overlap
     ethr =  1.09E-03,  avg # of iterations =  1.0

     negative rho (up, down):  3.417E-06 0.000E+00

     total cpu time spent up to now is    77294.5 secs

     total energy              =    -142.25980921 Ry
     Harris-Foulkes estimate   =    -142.29577059 Ry
     estimated scf accuracy    <       0.10990655 Ry

     iteration #  3     ecut=    80.00 Ry     beta= 0.40
     Davidson diagonalization with overlap
     ethr =  1.18E-04,  avg # of iterations =  1.0

     negative rho (up, down):  2.329E-07 0.000E+00

     total cpu time spent up to now is    77308.4 secs

     total energy              =    -142.26912803 Ry
     Harris-Foulkes estimate   =    -142.27101618 Ry
     estimated scf accuracy    <       0.00856239 Ry

     iteration #  4     ecut=    80.00 Ry     beta= 0.40
     Davidson diagonalization with overlap
     ethr =  9.21E-06,  avg # of iterations =  2.0

     negative rho (up, down):  8.086E-08 0.000E+00

     total cpu time spent up to now is    77323.5 secs

     total energy              =    -142.26975918 Ry
     Harris-Foulkes estimate   =    -142.26981652 Ry
     estimated scf accuracy    <       0.00015296 Ry

     iteration #  5     ecut=    80.00 Ry     beta= 0.40
     Davidson diagonalization with overlap
     ethr =  1.64E-07,  avg # of iterations =  5.0

     negative rho (up, down):  4.453E-08 0.000E+00

     total cpu time spent up to now is    77347.9 secs

     total energy              =    -142.26987292 Ry
     Harris-Foulkes estimate   =    -142.26989842 Ry
     estimated scf accuracy    <       0.00011443 Ry

     iteration #  6     ecut=    80.00 Ry     beta= 0.40
     Davidson diagonalization with overlap
     ethr =  1.23E-07,  avg # of iterations =  4.0

     negative rho (up, down):  3.636E-08 0.000E+00

     total cpu time spent up to now is    77363.8 secs

     total energy              =    -142.26988286 Ry
     Harris-Foulkes estimate   =    -142.26988421 Ry
     estimated scf accuracy    <       0.00001445 Ry

     iteration #  7     ecut=    80.00 Ry     beta= 0.40
     Davidson diagonalization with overlap
     ethr =  1.55E-08,  avg # of iterations =  4.0

     total cpu time spent up to now is    77379.3 secs

     total energy              =    -142.26988318 Ry
     Harris-Foulkes estimate   =    -142.26988417 Ry
     estimated scf accuracy    <       0.00000765 Ry

     iteration #  8     ecut=    80.00 Ry     beta= 0.40
     Davidson diagonalization with overlap
     ethr =  8.23E-09,  avg # of iterations =  7.0

     total cpu time spent up to now is    77400.5 secs

     total energy              =    -142.26988458 Ry
     Harris-Foulkes estimate   =    -142.26988773 Ry
     estimated scf accuracy    <       0.00002195 Ry

     iteration #  9     ecut=    80.00 Ry     beta= 0.40
     Davidson diagonalization with overlap
     ethr =  8.23E-09,  avg # of iterations =  4.0

     total cpu time spent up to now is    77417.1 secs

     total energy              =    -142.26988337 Ry
     Harris-Foulkes estimate   =    -142.26988526 Ry
     estimated scf accuracy    <       0.00000820 Ry

     iteration # 10     ecut=    80.00 Ry     beta= 0.40
     Davidson diagonalization with overlap
     ethr =  8.23E-09,  avg # of iterations =  4.0

     total cpu time spent up to now is    77433.3 secs

     total energy              =    -142.26988386 Ry
     Harris-Foulkes estimate   =    -142.26988400 Ry
     estimated scf accuracy    <       0.00000052 Ry

     iteration # 11     ecut=    80.00 Ry     beta= 0.40
     Davidson diagonalization with overlap
     ethr =  5.61E-10,  avg # of iterations =  7.0

     total cpu time spent up to now is    77455.0 secs

     total energy              =    -142.26988410 Ry
     Harris-Foulkes estimate   =    -142.26988414 Ry
     estimated scf accuracy    <       0.00000059 Ry

     iteration # 12     ecut=    80.00 Ry     beta= 0.40
     Davidson diagonalization with overlap
     ethr =  5.61E-10,  avg # of iterations =  1.0

     total cpu time spent up to now is    77469.2 secs

     total energy              =    -142.26988407 Ry
     Harris-Foulkes estimate   =    -142.26988411 Ry
     estimated scf accuracy    <       0.00000042 Ry

     iteration # 13     ecut=    80.00 Ry     beta= 0.40
     Davidson diagonalization with overlap
     ethr =  4.48E-10,  avg # of iterations =  1.0

     total cpu time spent up to now is    77484.4 secs

     total energy              =    -142.26988406 Ry
     Harris-Foulkes estimate   =    -142.26988408 Ry
     estimated scf accuracy    <       0.00000019 Ry

     iteration # 14     ecut=    80.00 Ry     beta= 0.40
     Davidson diagonalization with overlap
     ethr =  2.09E-10,  avg # of iterations =  4.0

     total cpu time spent up to now is    77500.4 secs

     total energy              =    -142.26988407 Ry
     Harris-Foulkes estimate   =    -142.26988407 Ry
     estimated scf accuracy    <       0.00000002 Ry

     iteration # 15     ecut=    80.00 Ry     beta= 0.40
     Davidson diagonalization with overlap
     ethr =  2.08E-11,  avg # of iterations =  5.0

     total cpu time spent up to now is    77519.7 secs

     End of self-consistent calculation

          k = 0.0000 0.0000 0.0000 (315231 PWs)   bands (ev):

   -11.6236 -10.7478 -10.7478 -10.7477 -10.7477 -10.7477 -10.7476  -9.0217
    -9.0216  -9.0216  -9.0216  -9.0216  -9.0215  -8.1738  -8.1738  -8.1738
    -8.1737  -8.1737  -8.1737  -5.7782  -5.7782  -5.7781  -5.7781  -5.7781
    -5.7780  -5.7076  -5.7076  -5.7076  -5.7075  -5.7075  -5.7075  -4.8691
    -4.0234  -4.0234  -4.0234  -4.0233  -4.0233  -4.0233  -3.7524  -3.7524
    -3.7523  -3.7521  -3.7521  -3.7521  -2.3346  -2.3346  -2.3345  -2.3345
    -2.3345  -2.3345  -1.8112  -1.8112  -1.8112  -1.8111  -1.8111  -1.8111

     the Fermi energy is    -2.4052 ev

!    total energy              =    -142.26988407 Ry
     Harris-Foulkes estimate   =    -142.26988408 Ry
     estimated scf accuracy    <          7.8E-09 Ry

     The total energy is the sum of the following terms:

     one-electron contribution =    -702.57760226 Ry
     hartree contribution      =     360.19180988 Ry
     xc contribution           =     -63.84983694 Ry
     ewald contribution        =     264.01241370 Ry
     smearing contrib. (-TS)   =      -0.04666846 Ry

     convergence has been achieved in  15 iterations

     Forces acting on atoms (cartesian axes, Ry/au):

     atom    1 type  1   force =    -0.00000800    0.00000284    0.00000000
     atom    2 type  1   force =     0.00000540   -0.00000140    0.00000000
     atom    3 type  1   force =    -0.00000848    0.00000623    0.00000000
     atom    4 type  1   force =    -0.00001147   -0.00000173    0.00000000
     atom    5 type  1   force =     0.00000257   -0.00000378    0.00000000
     atom    6 type  1   force =     0.00000121    0.00000282    0.00000000
     atom    7 type  1   force =    -0.00000284    0.00000651    0.00000000
     atom    8 type  1   force =     0.00000421    0.00000821    0.00000000
     atom    9 type  1   force =    -0.00000789   -0.00000344    0.00000000
     atom   10 type  1   force =     0.00000370   -0.00000123    0.00000000
     atom   11 type  1   force =    -0.00001623   -0.00000947    0.00000000
     atom   12 type  1   force =    -0.00000532   -0.00001037    0.00000000
     atom   13 type  1   force =     0.00000321   -0.00000751    0.00000000
     atom   14 type  1   force =     0.00000318   -0.00000996    0.00000000
     atom   15 type  1   force =     0.00000211   -0.00000231    0.00000000
     atom   16 type  1   force =     0.00001706    0.00000479    0.00000000
     atom   17 type  1   force =     0.00001064    0.00001489    0.00000000
     atom   18 type  1   force =     0.00000262    0.00000296    0.00000000
     atom   19 type  1   force =     0.00000654   -0.00000145    0.00000000
     atom   20 type  1   force =    -0.00000340   -0.00000988    0.00000000
     atom   21 type  1   force =     0.00001165   -0.00000594    0.00000000
     atom   22 type  1   force =    -0.00001867    0.00000131    0.00000000
     atom   23 type  1   force =     0.00000935   -0.00001811    0.00000000
     atom   24 type  1   force =    -0.00000224    0.00000525    0.00000000
     atom   25 type  1   force =    -0.00000242    0.00000782    0.00000000
     atom   26 type  1   force =    -0.00000744    0.00001295    0.00000000
     atom   27 type  1   force =     0.00000004   -0.00001197    0.00000000
     atom   28 type  1   force =     0.00000370    0.00000873    0.00000000
     atom   29 type  1   force =     0.00000661    0.00000340    0.00000000
     atom   30 type  1   force =     0.00000427    0.00000893    0.00000000
     atom   31 type  1   force =    -0.00000364    0.00000091    0.00000000

     Total force =     0.000061     Total SCF correction =     0.000096
     SCF correction compared to forces is large: reduce conv_thr to get better values


     Computing stress (Cartesian axis) and pressure

          total   stress  (Ry/bohr**3)                   (kbar)     P=    0.00
   0.00000004   0.00000001   0.00000000          0.01      0.00      0.00
   0.00000001   0.00000003   0.00000000          0.00      0.00      0.00
   0.00000000   0.00000000  -0.00000002          0.00      0.00     -0.00


     Writing output data file 17al_planar_2x2_vcr.save/
 
     init_run     :     49.28s CPU     51.98s WALL (       2 calls)
     electrons    :  50973.53s CPU  58435.04s WALL (     221 calls)
     update_pot   :   5088.84s CPU   5146.65s WALL (     219 calls)
     forces       :   4092.86s CPU   4188.01s WALL (     221 calls)
     stress       :   9352.92s CPU   9583.72s WALL (     221 calls)

     Called by init_run:
     wfcinit      :     22.21s CPU     24.54s WALL (       2 calls)
     potinit      :     10.30s CPU     10.49s WALL (       2 calls)
     hinit0       :     14.45s CPU     14.55s WALL (       2 calls)

     Called by electrons:
     c_bands      :  43574.84s CPU  49692.04s WALL (    2129 calls)
     sum_band     :   4831.45s CPU   5715.81s WALL (    2129 calls)
     v_of_rho     :   2246.55s CPU   2543.91s WALL (    2302 calls)
     mix_rho      :    405.20s CPU    547.08s WALL (    2129 calls)

     Called by c_bands:
     init_us_2    :    491.66s CPU    498.27s WALL (    4260 calls)
     cegterg      :  37273.80s CPU  43358.02s WALL (    2130 calls)

     Called by sum_band:

     Called by *egterg:
     h_psi        :  31858.33s CPU  37749.61s WALL (   13528 calls)
     g_psi        :    155.51s CPU    158.77s WALL (   11396 calls)
     cdiaghg      :    119.80s CPU    122.12s WALL (   13258 calls)

     Called by h_psi:
     h_psi:pot    :  31805.67s CPU  37600.19s WALL (   13528 calls)
     h_psi:calbec :   5717.36s CPU   5753.29s WALL (   13528 calls)
     vloc_psi     :  20222.34s CPU  25950.12s WALL (   13528 calls)
     add_vuspsi   :   5865.79s CPU   5896.67s WALL (   13528 calls)

     General routines
     calbec       :   6610.49s CPU   6652.81s WALL (   14633 calls)
     fft          :   1808.94s CPU   2060.05s WALL (   28812 calls)
     ffts         :    129.41s CPU    146.10s WALL (    2129 calls)
     fftw         :  21949.78s CPU  28375.44s WALL (  835282 calls)
 
     Parallel routines
     fft_scatt_xy :   3123.95s CPU   4419.96s WALL (  866223 calls)
     fft_scatt_yz :  10603.79s CPU  12031.54s WALL (  866223 calls)
 
     PWSCF        :    19h20m CPU       20h21m WALL

      32h
 
   This run was terminated on:   4:47: 8  27Nov2020            

=------------------------------------------------------------------------------=
   JOB DONE.
=------------------------------------------------------------------------------=
