
     Program PWSCF v.6.3MaX starts on 25Nov2020 at 16:48:35 

     This program is part of the open-source Quantum ESPRESSO suite
     for quantum simulation of materials; please cite
         "P. Giannozzi et al., J. Phys.:Condens. Matter 21 395502 (2009);
         "P. Giannozzi et al., J. Phys.:Condens. Matter 29 465901 (2017);
          URL http://www.quantum-espresso.org", 
     in publications or presentations arising from this work. More details at
     http://www.quantum-espresso.org/quote

     Parallel version (MPI), running on     8 processors

     MPI processes distributed on     4 nodes
     R & G space division:  proc/nbgrp/npool/nimage =       8
     Waiting for input...
     Reading input from standard input

     Current dimensions of program PWSCF are:
     Max number of different atomic species (ntypx) = 10
     Max number of k-points (npk) =  40000
     Max angular momentum in pseudopotentials (lmaxx) =  3

     Subspace diagonalization in iterative solution of the eigenvalue problem:
     a serial algorithm will be used

 
     Parallelization info
     --------------------
     sticks:   dense  smooth     PW     G-vecs:    dense   smooth      PW
     Min        1758    1758    438               252392   252392   31546
     Max        1759    1759    439               252397   252397   31551
     Sum       14071   14071   3505              2019149  2019149  252395
 


     bravais-lattice index     =            4
     lattice parameter (alat)  =      25.2607  a.u.
     unit-cell volume          =   20885.8003 (a.u.)^3
     number of atoms/cell      =           17
     number of atomic types    =            1
     number of electrons       =        51.00
     number of Kohn-Sham states=           31
     kinetic-energy cutoff     =      80.0000  Ry
     charge density cutoff     =     320.0000  Ry
     convergence threshold     =      1.0E-06
     mixing beta               =       0.4000
     number of iterations used =            8  plain     mixing
     Exchange-correlation      = PBE ( 1  4  3  4 0 0)
     nstep                     =          300


     celldm(1)=  25.260725  celldm(2)=   0.000000  celldm(3)=   1.496177
     celldm(4)=   0.000000  celldm(5)=   0.000000  celldm(6)=   0.000000

     crystal axes: (cart. coord. in units of alat)
               a(1) = (   1.000000   0.000000   0.000000 )  
               a(2) = (  -0.500000   0.866025   0.000000 )  
               a(3) = (   0.000000   0.000000   1.496177 )  

     reciprocal axes: (cart. coord. in units 2 pi/alat)
               b(1) = (  1.000000  0.577350  0.000000 )  
               b(2) = (  0.000000  1.154701  0.000000 )  
               b(3) = (  0.000000  0.000000  0.668370 )  


     PseudoPot. # 1 for Al read from file:
     ./Al.upf
     MD5 check sum: 4974d48a734c9d7d1eb6780a1419d19d
     Pseudo is Norm-conserving + core correction, Zval =  3.0
     Generated using ONCVPSP code by D. R. Hamann
     Using radial grid of 1876 points,  6 beta functions with: 
                l(1) =   0
                l(2) =   0
                l(3) =   1
                l(4) =   1
                l(5) =   2
                l(6) =   2

     atomic species   valence    mass     pseudopotential
        Al             3.00    29.98200     Al( 1.00)

      4 Sym. Ops. (no inversion) found ( 2 have fractional translation)



   Cartesian axes

     site n.     atom                  positions (alat units)
         1           Al  tau(   1) = (   0.0000000   0.1924524   0.0000000  )
         2           Al  tau(   2) = (   0.1666687   0.0962261   0.0000000  )
         3           Al  tau(   3) = (   0.3333348   0.1924537   0.0000000  )
         4           Al  tau(   4) = (   0.5000036   0.0962275   0.0000000  )
         5           Al  tau(   5) = (  -0.1666663   0.4811295   0.0000000  )
         6           Al  tau(   6) = (   0.0000024   0.3849033   0.0000000  )
         7           Al  tau(   7) = (   0.1666686   0.4811309   0.0000000  )
         8           Al  tau(   8) = (   0.3333373   0.3849047   0.0000000  )
         9           Al  tau(   9) = (  -0.3333326   0.7698067   0.0000000  )
        10           Al  tau(  10) = (  -0.1666639   0.6735805   0.0000000  )
        11           Al  tau(  11) = (   0.0000023   0.7698081   0.0000000  )
        12           Al  tau(  12) = (   0.6666697   0.1924551   0.0000000  )
        13           Al  tau(  13) = (   0.8333384   0.0962289   0.0000000  )
        14           Al  tau(  14) = (   0.5000035   0.4811323   0.0000000  )
        15           Al  tau(  15) = (   0.6666722   0.3849060   0.0000000  )
        16           Al  tau(  16) = (   0.3333372   0.7698094   0.0000000  )
        17           Al  tau(  17) = (   0.5000059   0.6735832   0.0000000  )

     number of k points=     1  Methfessel-Paxton smearing, width (Ry)=  0.0500
                       cart. coord. in units 2pi/alat
        k(    1) = (   0.0000000   0.0000000   0.0000000), wk =   2.0000000

     Dense  grid:  2019149 G-vectors     FFT dimensions: ( 144, 144, 216)

     Estimated max dynamical RAM per process >     437.36 MB

     Estimated total dynamical RAM >       3.42 GB

     Initial potential from superposition of free atoms

     starting charge   50.95840, renormalised to   51.00000

     negative rho (up, down):  5.196E-05 0.000E+00
     Starting wfcs are   68 randomized atomic wfcs

     total cpu time spent up to now is       11.5 secs

     Self-consistent Calculation

     iteration #  1     ecut=    80.00 Ry     beta= 0.40
     Davidson diagonalization with overlap
     ethr =  1.00E-02,  avg # of iterations =  2.0

     total cpu time spent up to now is       19.0 secs

     total energy              =     -77.03454904 Ry
     Harris-Foulkes estimate   =     -77.31744986 Ry
     estimated scf accuracy    <       0.79283660 Ry

     iteration #  2     ecut=    80.00 Ry     beta= 0.40
     Davidson diagonalization with overlap
     ethr =  1.55E-03,  avg # of iterations =  4.0

     negative rho (up, down):  1.882E-07 0.000E+00

     total cpu time spent up to now is       25.7 secs

     total energy              =     -77.00110414 Ry
     Harris-Foulkes estimate   =     -77.25609162 Ry
     estimated scf accuracy    <       0.83315002 Ry

     iteration #  3     ecut=    80.00 Ry     beta= 0.40
     Davidson diagonalization with overlap
     ethr =  1.55E-03,  avg # of iterations =  3.0

     negative rho (up, down):  8.016E-06 0.000E+00

     total cpu time spent up to now is       32.1 secs

     total energy              =     -77.12796000 Ry
     Harris-Foulkes estimate   =     -77.18814617 Ry
     estimated scf accuracy    <       0.27894756 Ry

     iteration #  4     ecut=    80.00 Ry     beta= 0.40
     Davidson diagonalization with overlap
     ethr =  5.47E-04,  avg # of iterations =  2.0

     negative rho (up, down):  1.350E-05 0.000E+00

     total cpu time spent up to now is       37.6 secs

     total energy              =     -77.14934075 Ry
     Harris-Foulkes estimate   =     -77.16579959 Ry
     estimated scf accuracy    <       0.07052121 Ry

     iteration #  5     ecut=    80.00 Ry     beta= 0.40
     Davidson diagonalization with overlap
     ethr =  1.38E-04,  avg # of iterations =  3.0

     negative rho (up, down):  2.233E-05 0.000E+00

     total cpu time spent up to now is       44.4 secs

     total energy              =     -77.15915291 Ry
     Harris-Foulkes estimate   =     -77.16232191 Ry
     estimated scf accuracy    <       0.01777631 Ry

     iteration #  6     ecut=    80.00 Ry     beta= 0.40
     Davidson diagonalization with overlap
     ethr =  3.49E-05,  avg # of iterations =  5.0

     negative rho (up, down):  4.230E-05 0.000E+00

     total cpu time spent up to now is       51.0 secs

     total energy              =     -77.16171137 Ry
     Harris-Foulkes estimate   =     -77.16201090 Ry
     estimated scf accuracy    <       0.00226866 Ry

     iteration #  7     ecut=    80.00 Ry     beta= 0.40
     Davidson diagonalization with overlap
     ethr =  4.45E-06,  avg # of iterations =  3.0

     negative rho (up, down):  4.391E-05 0.000E+00

     total cpu time spent up to now is       58.7 secs

     total energy              =     -77.16205806 Ry
     Harris-Foulkes estimate   =     -77.16216832 Ry
     estimated scf accuracy    <       0.00049589 Ry

     iteration #  8     ecut=    80.00 Ry     beta= 0.40
     Davidson diagonalization with overlap
     ethr =  9.72E-07,  avg # of iterations =  3.0

     negative rho (up, down):  4.443E-05 0.000E+00

     total cpu time spent up to now is       65.3 secs

     total energy              =     -77.16208167 Ry
     Harris-Foulkes estimate   =     -77.16213532 Ry
     estimated scf accuracy    <       0.00030419 Ry

     iteration #  9     ecut=    80.00 Ry     beta= 0.40
     Davidson diagonalization with overlap
     ethr =  5.96E-07,  avg # of iterations =  1.0

     negative rho (up, down):  4.656E-05 0.000E+00

     total cpu time spent up to now is       71.1 secs

     total energy              =     -77.16209825 Ry
     Harris-Foulkes estimate   =     -77.16211931 Ry
     estimated scf accuracy    <       0.00010190 Ry

     iteration # 10     ecut=    80.00 Ry     beta= 0.40
     Davidson diagonalization with overlap
     ethr =  2.00E-07,  avg # of iterations =  3.0

     negative rho (up, down):  4.683E-05 0.000E+00

     total cpu time spent up to now is       78.4 secs

     total energy              =     -77.16211271 Ry
     Harris-Foulkes estimate   =     -77.16211597 Ry
     estimated scf accuracy    <       0.00001166 Ry

     iteration # 11     ecut=    80.00 Ry     beta= 0.40
     Davidson diagonalization with overlap
     ethr =  2.29E-08,  avg # of iterations =  6.0

     negative rho (up, down):  4.710E-05 0.000E+00

     total cpu time spent up to now is       86.7 secs

     total energy              =     -77.16211436 Ry
     Harris-Foulkes estimate   =     -77.16211739 Ry
     estimated scf accuracy    <       0.00001410 Ry

     iteration # 12     ecut=    80.00 Ry     beta= 0.40
     Davidson diagonalization with overlap
     ethr =  2.29E-08,  avg # of iterations =  3.0

     negative rho (up, down):  4.739E-05 0.000E+00

     total cpu time spent up to now is       93.7 secs

     total energy              =     -77.16211579 Ry
     Harris-Foulkes estimate   =     -77.16211652 Ry
     estimated scf accuracy    <       0.00000383 Ry

     iteration # 13     ecut=    80.00 Ry     beta= 0.40
     Davidson diagonalization with overlap
     ethr =  7.50E-09,  avg # of iterations =  3.0

     negative rho (up, down):  4.757E-05 0.000E+00

     total cpu time spent up to now is       99.6 secs

     End of self-consistent calculation

          k = 0.0000 0.0000 0.0000 (252395 PWs)   bands (ev):

    -9.9966  -9.1544  -9.0984  -9.0979  -9.0603  -9.0599  -8.4092  -7.5386
    -7.4677  -7.4673  -6.7265  -5.8851  -5.8796  -5.8794  -5.6095  -5.6094
    -4.7522  -4.7521  -4.0027  -3.5340  -3.3092  -3.2901  -3.2899  -3.2357
    -3.1475  -3.1137  -3.1134  -3.0993  -3.0990  -2.7514  -2.7513

     the Fermi energy is    -3.1137 ev

!    total energy              =     -77.16211591 Ry
     Harris-Foulkes estimate   =     -77.16211636 Ry
     estimated scf accuracy    <       0.00000064 Ry

     The total energy is the sum of the following terms:

     one-electron contribution =    -269.13907896 Ry
     hartree contribution      =     139.26327815 Ry
     xc contribution           =     -33.51714710 Ry
     ewald contribution        =      86.35205262 Ry
     smearing contrib. (-TS)   =      -0.12122062 Ry

     convergence has been achieved in  13 iterations

     negative rho (up, down):  4.757E-05 0.000E+00

     Forces acting on atoms (cartesian axes, Ry/au):

     atom    1 type  1   force =    -0.00822459    0.00477023    0.00000000
     atom    2 type  1   force =    -0.00000202   -0.00000116    0.00000000
     atom    3 type  1   force =     0.00824218    0.00475862    0.00000000
     atom    4 type  1   force =    -0.00464577    0.00195166    0.00000000
     atom    5 type  1   force =    -0.00059866   -0.00034563    0.00000000
     atom    6 type  1   force =     0.00064046   -0.00503040    0.00000000
     atom    7 type  1   force =     0.00001373    0.02226656    0.00000000
     atom    8 type  1   force =    -0.00063270   -0.00499919    0.00000000
     atom    9 type  1   force =     0.00001885   -0.00950781    0.00000000
     atom   10 type  1   force =    -0.00403623    0.00306986    0.00000000
     atom   11 type  1   force =     0.01929027   -0.01112139    0.00000000
     atom   12 type  1   force =    -0.00001511    0.00069602    0.00000000
     atom   13 type  1   force =     0.00465408    0.00194093    0.00000000
     atom   14 type  1   force =     0.00059522   -0.00036110    0.00000000
     atom   15 type  1   force =    -0.00001306   -0.00000754    0.00000000
     atom   16 type  1   force =    -0.01929459   -0.01113974    0.00000000
     atom   17 type  1   force =     0.00400794    0.00306009    0.00000000

     Total force =     0.043748     Total SCF correction =     0.000509


     Computing stress (Cartesian axis) and pressure


     negative rho (up, down):  4.757E-05 0.000E+00
          total   stress  (Ry/bohr**3)                   (kbar)     P=   -0.80
  -0.00000819  -0.00000000  -0.00000000         -1.21     -0.00     -0.00
  -0.00000000  -0.00000819  -0.00000000         -0.00     -1.20     -0.00
   0.00000000   0.00000000   0.00000003          0.00      0.00      0.00


     BFGS Geometry Optimization

     number of scf cycles    =   1
     number of bfgs steps    =   0

     enthalpy new            =     -77.1621159150 Ry

     new trust radius        =       0.0222794782 bohr
     new conv_thr            =       0.0000010000 Ry

     new unit-cell volume =  20877.24692 a.u.^3 (  3093.68877 Ang^3 )
     density =      0.27358 g/cm^3

CELL_PARAMETERS (alat= 25.26072511)
   0.999795209  -0.000000007   0.000000000
  -0.499897610   0.865848060   0.000000000
   0.000000000   0.000000000   1.496177267

ATOMIC_POSITIONS (angstrom)
Al      -0.004350804   2.574584826   0.000000000
Al       2.227469405   1.286029385   0.000000000
Al       4.459268358   2.574596847   0.000000000
Al       6.679920822   1.287080726   0.000000000
Al      -2.227755750   6.429951070   0.000000000
Al       0.000370906   5.141441459   0.000000000
Al       2.227476529   6.441932637   0.000000000
Al       4.454605600   5.141476135   0.000000000
Al      -4.454867463  10.283176534   0.000000000
Al      -2.229541800   9.003799943   0.000000000
Al       0.010236729  10.282341004   0.000000000
Al       8.909807968   2.572465613   0.000000000
Al      11.139749370   1.287093209   0.000000000
Al       6.682692458   6.429979211   0.000000000
Al       8.909841715   5.144135222   0.000000000
Al       4.444730964  10.282349456   0.000000000
Al       6.684530682   9.003831098   0.000000000



     Writing output data file 12al_planar_2x2_vcr.save/
     NEW-OLD atomic charge density approx. for the potential

     negative rho (up, down):  4.759E-05 0.000E+00
     extrapolated charge   50.97912, renormalised to   51.00000

     total cpu time spent up to now is      129.6 secs

     Self-consistent Calculation

     iteration #  1     ecut=    80.00 Ry     beta= 0.40
     Davidson diagonalization with overlap
     ethr =  1.00E-06,  avg # of iterations =  4.0

     negative rho (up, down):  4.766E-05 0.000E+00

     total cpu time spent up to now is      137.7 secs

     total energy              =     -77.16398814 Ry
     Harris-Foulkes estimate   =     -77.26483722 Ry
     estimated scf accuracy    <       0.00015192 Ry

     iteration #  2     ecut=    80.00 Ry     beta= 0.40
     Davidson diagonalization with overlap
     ethr =  2.98E-07,  avg # of iterations =  6.0

     negative rho (up, down):  4.762E-05 0.000E+00

     total cpu time spent up to now is      145.5 secs

     total energy              =     -77.16398354 Ry
     Harris-Foulkes estimate   =     -77.16413104 Ry
     estimated scf accuracy    <       0.00078018 Ry

     iteration #  3     ecut=    80.00 Ry     beta= 0.40
     Davidson diagonalization with overlap
     ethr =  2.98E-07,  avg # of iterations =  4.0

     negative rho (up, down):  4.760E-05 0.000E+00

     total cpu time spent up to now is      152.1 secs

     total energy              =     -77.16404860 Ry
     Harris-Foulkes estimate   =     -77.16406190 Ry
     estimated scf accuracy    <       0.00005551 Ry

     iteration #  4     ecut=    80.00 Ry     beta= 0.40
     Davidson diagonalization with overlap
     ethr =  1.09E-07,  avg # of iterations =  5.0

     negative rho (up, down):  4.758E-05 0.000E+00

     total cpu time spent up to now is      167.7 secs

     total energy              =     -77.16405308 Ry
     Harris-Foulkes estimate   =     -77.16406039 Ry
     estimated scf accuracy    <       0.00003590 Ry

     iteration #  5     ecut=    80.00 Ry     beta= 0.40
     Davidson diagonalization with overlap
     ethr =  7.04E-08,  avg # of iterations =  4.0

     negative rho (up, down):  4.752E-05 0.000E+00

     total cpu time spent up to now is      178.9 secs

     total energy              =     -77.16405681 Ry
     Harris-Foulkes estimate   =     -77.16405739 Ry
     estimated scf accuracy    <       0.00000333 Ry

     iteration #  6     ecut=    80.00 Ry     beta= 0.40
     Davidson diagonalization with overlap
     ethr =  6.54E-09,  avg # of iterations =  7.0

     negative rho (up, down):  4.752E-05 0.000E+00

     total cpu time spent up to now is      186.1 secs

     total energy              =     -77.16405709 Ry
     Harris-Foulkes estimate   =     -77.16405802 Ry
     estimated scf accuracy    <       0.00000413 Ry

     iteration #  7     ecut=    80.00 Ry     beta= 0.40
     Davidson diagonalization with overlap
     ethr =  6.54E-09,  avg # of iterations =  4.0

     negative rho (up, down):  4.752E-05 0.000E+00

     total cpu time spent up to now is      191.9 secs

     total energy              =     -77.16405749 Ry
     Harris-Foulkes estimate   =     -77.16405795 Ry
     estimated scf accuracy    <       0.00000296 Ry

     iteration #  8     ecut=    80.00 Ry     beta= 0.40
     Davidson diagonalization with overlap
     ethr =  5.81E-09,  avg # of iterations =  1.0

     negative rho (up, down):  4.753E-05 0.000E+00

     total cpu time spent up to now is      197.0 secs

     End of self-consistent calculation

          k = 0.0000 0.0000 0.0000 (252395 PWs)   bands (ev):

    -9.9962  -9.1514  -9.0994  -9.0991  -9.0557  -9.0553  -8.4039  -7.5358
    -7.4655  -7.4654  -6.7337  -5.8834  -5.8717  -5.8715  -5.6128  -5.6127
    -4.7562  -4.7561  -4.0020  -3.5551  -3.2989  -3.2861  -3.2859  -3.2411
    -3.1448  -3.1120  -3.1118  -3.0976  -3.0973  -2.7445  -2.7444

     the Fermi energy is    -3.1119 ev

!    total energy              =     -77.16405767 Ry
     Harris-Foulkes estimate   =     -77.16405772 Ry
     estimated scf accuracy    <       0.00000015 Ry

     The total energy is the sum of the following terms:

     one-electron contribution =    -269.17411963 Ry
     hartree contribution      =     139.27831048 Ry
     xc contribution           =     -33.51195577 Ry
     ewald contribution        =      86.36390246 Ry
     smearing contrib. (-TS)   =      -0.12019521 Ry

     convergence has been achieved in   8 iterations

     negative rho (up, down):  4.753E-05 0.000E+00

     Forces acting on atoms (cartesian axes, Ry/au):

     atom    1 type  1   force =    -0.00682891    0.00395846    0.00000000
     atom    2 type  1   force =     0.00000460    0.00000266    0.00000000
     atom    3 type  1   force =     0.00683130    0.00394406    0.00000000
     atom    4 type  1   force =    -0.00401007    0.00058597    0.00000000
     atom    5 type  1   force =    -0.00021396   -0.00012353    0.00000000
     atom    6 type  1   force =     0.00149240   -0.00375154    0.00000000
     atom    7 type  1   force =    -0.00001776    0.02208351    0.00000000
     atom    8 type  1   force =    -0.00149757   -0.00376581    0.00000000
     atom    9 type  1   force =     0.00001367   -0.00789324    0.00000000
     atom   10 type  1   force =    -0.00250273    0.00316823    0.00000000
     atom   11 type  1   force =     0.01911600   -0.01105714    0.00000000
     atom   12 type  1   force =     0.00000737    0.00027467    0.00000000
     atom   13 type  1   force =     0.00398955    0.00060149    0.00000000
     atom   14 type  1   force =     0.00024156   -0.00013095    0.00000000
     atom   15 type  1   force =    -0.00000721   -0.00000417    0.00000000
     atom   16 type  1   force =    -0.01913390   -0.01104696    0.00000000
     atom   17 type  1   force =     0.00251567    0.00315431    0.00000000

     Total force =     0.041816     Total SCF correction =     0.000180


     Computing stress (Cartesian axis) and pressure


     negative rho (up, down):  4.753E-05 0.000E+00
          total   stress  (Ry/bohr**3)                   (kbar)     P=   -0.87
  -0.00000886   0.00000000  -0.00000000         -1.30      0.00     -0.00
   0.00000000  -0.00000887  -0.00000000          0.00     -1.30     -0.00
  -0.00000000  -0.00000000   0.00000003         -0.00     -0.00      0.00


     number of scf cycles    =   2
     number of bfgs steps    =   1

     enthalpy old            =     -77.1621159150 Ry
     enthalpy new            =     -77.1640576710 Ry

     CASE: enthalpy_new < enthalpy_old


     WARNING: bfgs curvature condition failed, Theta= 0.837
     new trust radius        =       0.0334123731 bohr
     new conv_thr            =       0.0000010000 Ry

     new unit-cell volume =  20863.82764 a.u.^3 (  3091.70024 Ang^3 )
     density =      0.27375 g/cm^3

CELL_PARAMETERS (alat= 25.26072511)
   0.999473882   0.000000070   0.000000000
  -0.499736880   0.865569667   0.000000000
   0.000000000   0.000000000   1.496177267

ATOMIC_POSITIONS (angstrom)
Al      -0.010336746   2.577228968   0.000000000
Al       2.226754687   1.285616742   0.000000000
Al       4.463830781   2.577230952   0.000000000
Al       6.674330081   1.287669380   0.000000000
Al      -2.227360453   6.427698351   0.000000000
Al       0.001226434   5.136298611   0.000000000
Al       2.226759320   6.457527950   0.000000000
Al       4.452320018   5.136340073   0.000000000
Al      -4.453421990  10.272949065   0.000000000
Al      -2.231419323   9.003390868   0.000000000
Al       0.025532622  10.270200800   0.000000000
Al       8.906941688   2.572023217   0.000000000
Al      11.139608149   1.287684281   0.000000000
Al       6.680876203   6.427718108   0.000000000
Al       8.906970520   5.142477526   0.000000000
Al       4.427995925  10.270206521   0.000000000
Al       6.684971956   9.003413238   0.000000000



     Writing output data file 12al_planar_2x2_vcr.save/
     NEW-OLD atomic charge density approx. for the potential

     negative rho (up, down):  4.756E-05 0.000E+00
     extrapolated charge   50.96722, renormalised to   51.00000

     total cpu time spent up to now is      226.0 secs

     Self-consistent Calculation

     iteration #  1     ecut=    80.00 Ry     beta= 0.40
     Davidson diagonalization with overlap
     ethr =  1.00E-06,  avg # of iterations =  4.0

     negative rho (up, down):  4.769E-05 0.000E+00

     total cpu time spent up to now is      233.2 secs

     total energy              =     -77.16668697 Ry
     Harris-Foulkes estimate   =     -77.32502567 Ry
     estimated scf accuracy    <       0.00021458 Ry

     iteration #  2     ecut=    80.00 Ry     beta= 0.40
     Davidson diagonalization with overlap
     ethr =  4.21E-07,  avg # of iterations =  4.0

     negative rho (up, down):  4.764E-05 0.000E+00

     total cpu time spent up to now is      239.2 secs

     total energy              =     -77.16671137 Ry
     Harris-Foulkes estimate   =     -77.16686416 Ry
     estimated scf accuracy    <       0.00072683 Ry

     iteration #  3     ecut=    80.00 Ry     beta= 0.40
     Davidson diagonalization with overlap
     ethr =  4.21E-07,  avg # of iterations =  3.0

     negative rho (up, down):  4.761E-05 0.000E+00

     total cpu time spent up to now is      244.4 secs

     total energy              =     -77.16677469 Ry
     Harris-Foulkes estimate   =     -77.16679251 Ry
     estimated scf accuracy    <       0.00007509 Ry

     iteration #  4     ecut=    80.00 Ry     beta= 0.40
     Davidson diagonalization with overlap
     ethr =  1.47E-07,  avg # of iterations =  3.0

     negative rho (up, down):  4.759E-05 0.000E+00

     total cpu time spent up to now is      249.1 secs

     total energy              =     -77.16677825 Ry
     Harris-Foulkes estimate   =     -77.16678832 Ry
     estimated scf accuracy    <       0.00004416 Ry

     iteration #  5     ecut=    80.00 Ry     beta= 0.40
     Davidson diagonalization with overlap
     ethr =  8.66E-08,  avg # of iterations =  1.0

     negative rho (up, down):  4.753E-05 0.000E+00

     total cpu time spent up to now is      254.3 secs

     total energy              =     -77.16678291 Ry
     Harris-Foulkes estimate   =     -77.16678538 Ry
     estimated scf accuracy    <       0.00001316 Ry

     iteration #  6     ecut=    80.00 Ry     beta= 0.40
     Davidson diagonalization with overlap
     ethr =  2.58E-08,  avg # of iterations =  4.0

     negative rho (up, down):  4.752E-05 0.000E+00

     total cpu time spent up to now is      259.8 secs

     total energy              =     -77.16678335 Ry
     Harris-Foulkes estimate   =     -77.16678648 Ry
     estimated scf accuracy    <       0.00001678 Ry

     iteration #  7     ecut=    80.00 Ry     beta= 0.40
     Davidson diagonalization with overlap
     ethr =  2.58E-08,  avg # of iterations =  4.0

     negative rho (up, down):  4.751E-05 0.000E+00

     total cpu time spent up to now is      265.1 secs

     total energy              =     -77.16678503 Ry
     Harris-Foulkes estimate   =     -77.16678526 Ry
     estimated scf accuracy    <       0.00000122 Ry

     iteration #  8     ecut=    80.00 Ry     beta= 0.40
     Davidson diagonalization with overlap
     ethr =  2.39E-09,  avg # of iterations =  5.0

     negative rho (up, down):  4.748E-05 0.000E+00

     total cpu time spent up to now is      270.4 secs

     End of self-consistent calculation

          k = 0.0000 0.0000 0.0000 (252395 PWs)   bands (ev):

    -9.9960  -9.1474  -9.1021  -9.1018  -9.0489  -9.0486  -8.3977  -7.5323
    -7.4628  -7.4628  -6.7446  -5.8808  -5.8613  -5.8611  -5.6178  -5.6177
    -4.7625  -4.7624  -4.0013  -3.5881  -3.2846  -3.2803  -3.2801  -3.2487
    -3.1409  -3.1122  -3.1120  -3.0934  -3.0931  -2.7351  -2.7349

     the Fermi energy is    -3.1095 ev

!    total energy              =     -77.16678513 Ry
     Harris-Foulkes estimate   =     -77.16678527 Ry
     estimated scf accuracy    <       0.00000035 Ry

     The total energy is the sum of the following terms:

     one-electron contribution =    -269.23252486 Ry
     hartree contribution      =     139.30368495 Ry
     xc contribution           =     -33.50463444 Ry
     ewald contribution        =      86.38536684 Ry
     smearing contrib. (-TS)   =      -0.11867762 Ry

     convergence has been achieved in   8 iterations

     negative rho (up, down):  4.748E-05 0.000E+00

     Forces acting on atoms (cartesian axes, Ry/au):

     atom    1 type  1   force =    -0.00494653    0.00286337    0.00000000
     atom    2 type  1   force =     0.00000922    0.00000533    0.00000000
     atom    3 type  1   force =     0.00495837    0.00286271    0.00000000
     atom    4 type  1   force =    -0.00303847   -0.00128355    0.00000000
     atom    5 type  1   force =     0.00029379    0.00016962    0.00000000
     atom    6 type  1   force =     0.00264896   -0.00197283    0.00000000
     atom    7 type  1   force =    -0.00000818    0.02179807    0.00000000
     atom    8 type  1   force =    -0.00263082   -0.00198961    0.00000000
     atom    9 type  1   force =     0.00000648   -0.00571551    0.00000000
     atom   10 type  1   force =    -0.00038404    0.00328048    0.00000000
     atom   11 type  1   force =     0.01887359   -0.01090612    0.00000000
     atom   12 type  1   force =    -0.00000412   -0.00034192    0.00000000
     atom   13 type  1   force =     0.00302088   -0.00129229    0.00000000
     atom   14 type  1   force =    -0.00029817    0.00016740    0.00000000
     atom   15 type  1   force =    -0.00000552   -0.00000319    0.00000000
     atom   16 type  1   force =    -0.01888671   -0.01090425    0.00000000
     atom   17 type  1   force =     0.00039128    0.00326230    0.00000000

     Total force =     0.039869     Total SCF correction =     0.000298


     Computing stress (Cartesian axis) and pressure


     negative rho (up, down):  4.748E-05 0.000E+00
          total   stress  (Ry/bohr**3)                   (kbar)     P=   -0.96
  -0.00000980   0.00000000   0.00000000         -1.44      0.00      0.00
   0.00000000  -0.00000981   0.00000000          0.00     -1.44      0.00
   0.00000000   0.00000000   0.00000006          0.00      0.00      0.01


     number of scf cycles    =   3
     number of bfgs steps    =   2

     enthalpy old            =     -77.1640576710 Ry
     enthalpy new            =     -77.1667851328 Ry

     CASE: enthalpy_new < enthalpy_old

     new trust radius        =       0.0501024542 bohr
     new conv_thr            =       0.0000010000 Ry

     new unit-cell volume =  20842.41203 a.u.^3 (  3088.52677 Ang^3 )
     density =      0.27404 g/cm^3

CELL_PARAMETERS (alat= 25.26072511)
   0.998960835   0.000000136   0.000000000
  -0.499480300   0.865125257   0.000000000
   0.000000000   0.000000000   1.496177267

ATOMIC_POSITIONS (angstrom)
Al      -0.018198329   2.580465227   0.000000000
Al       2.225616023   1.284959335   0.000000000
Al       4.469425851   2.580461247   0.000000000
Al       6.666315585   1.287357294   0.000000000
Al      -2.226386335   6.424300326   0.000000000
Al       0.003236465   5.129502550   0.000000000
Al       2.225622485   6.480698127   0.000000000
Al       4.448042496   5.129555341   0.000000000
Al      -4.451120279  10.258581946   0.000000000
Al      -2.232870050   9.002588998   0.000000000
Al       0.048460002  10.251690516   0.000000000
Al       8.902356147   2.570897087   0.000000000
Al      11.138474859   1.287357615   0.000000000
Al       6.677608191   6.424309931   0.000000000
Al       8.902387375   5.139831428   0.000000000
Al       4.402774419  10.251684427   0.000000000
Al       6.684122409   9.002595076   0.000000000



     Writing output data file 12al_planar_2x2_vcr.save/
     NEW-OLD atomic charge density approx. for the potential

     negative rho (up, down):  4.753E-05 0.000E+00
     extrapolated charge   50.94764, renormalised to   51.00000

     total cpu time spent up to now is      300.9 secs

     Self-consistent Calculation

     iteration #  1     ecut=    80.00 Ry     beta= 0.40
     Davidson diagonalization with overlap
     ethr =  1.00E-06,  avg # of iterations =  6.0

     negative rho (up, down):  4.774E-05 0.000E+00

     total cpu time spent up to now is      309.1 secs

     total energy              =     -77.17038070 Ry
     Harris-Foulkes estimate   =     -77.42346423 Ry
     estimated scf accuracy    <       0.00041711 Ry

     iteration #  2     ecut=    80.00 Ry     beta= 0.40
     Davidson diagonalization with overlap
     ethr =  8.18E-07,  avg # of iterations =  5.0

     negative rho (up, down):  4.764E-05 0.000E+00

     total cpu time spent up to now is      315.2 secs

     total energy              =     -77.17043212 Ry
     Harris-Foulkes estimate   =     -77.17077937 Ry
     estimated scf accuracy    <       0.00177564 Ry

     iteration #  3     ecut=    80.00 Ry     beta= 0.40
     Davidson diagonalization with overlap
     ethr =  8.18E-07,  avg # of iterations =  4.0

     negative rho (up, down):  4.760E-05 0.000E+00

     total cpu time spent up to now is      320.5 secs

     total energy              =     -77.17057329 Ry
     Harris-Foulkes estimate   =     -77.17060880 Ry
     estimated scf accuracy    <       0.00016209 Ry

     iteration #  4     ecut=    80.00 Ry     beta= 0.40
     Davidson diagonalization with overlap
     ethr =  3.18E-07,  avg # of iterations =  5.0

     negative rho (up, down):  4.754E-05 0.000E+00

     total cpu time spent up to now is      325.2 secs

     total energy              =     -77.17057899 Ry
     Harris-Foulkes estimate   =     -77.17059810 Ry
     estimated scf accuracy    <       0.00009189 Ry

     iteration #  5     ecut=    80.00 Ry     beta= 0.40
     Davidson diagonalization with overlap
     ethr =  1.80E-07,  avg # of iterations =  4.0

     negative rho (up, down):  4.736E-05 0.000E+00

     total cpu time spent up to now is      329.6 secs

     total energy              =     -77.17058624 Ry
     Harris-Foulkes estimate   =     -77.17059158 Ry
     estimated scf accuracy    <       0.00002855 Ry

     iteration #  6     ecut=    80.00 Ry     beta= 0.40
     Davidson diagonalization with overlap
     ethr =  5.60E-08,  avg # of iterations =  3.0

     negative rho (up, down):  4.735E-05 0.000E+00

     total cpu time spent up to now is      334.4 secs

     total energy              =     -77.17058969 Ry
     Harris-Foulkes estimate   =     -77.17059143 Ry
     estimated scf accuracy    <       0.00000713 Ry

     iteration #  7     ecut=    80.00 Ry     beta= 0.40
     Davidson diagonalization with overlap
     ethr =  1.40E-08,  avg # of iterations =  4.0

     negative rho (up, down):  4.736E-05 0.000E+00

     total cpu time spent up to now is      350.0 secs

     total energy              =     -77.17059042 Ry
     Harris-Foulkes estimate   =     -77.17059171 Ry
     estimated scf accuracy    <       0.00000764 Ry

     iteration #  8     ecut=    80.00 Ry     beta= 0.40
     Davidson diagonalization with overlap
     ethr =  1.40E-08,  avg # of iterations =  2.0

     negative rho (up, down):  4.736E-05 0.000E+00

     total cpu time spent up to now is      362.1 secs

     total energy              =     -77.17059079 Ry
     Harris-Foulkes estimate   =     -77.17059105 Ry
     estimated scf accuracy    <       0.00000105 Ry

     iteration #  9     ecut=    80.00 Ry     beta= 0.40
     Davidson diagonalization with overlap
     ethr =  2.05E-09,  avg # of iterations =  6.0

     negative rho (up, down):  4.735E-05 0.000E+00

     total cpu time spent up to now is      368.5 secs

     total energy              =     -77.17059092 Ry
     Harris-Foulkes estimate   =     -77.17059126 Ry
     estimated scf accuracy    <       0.00000257 Ry

     iteration # 10     ecut=    80.00 Ry     beta= 0.40
     Davidson diagonalization with overlap
     ethr =  2.05E-09,  avg # of iterations =  3.0

     negative rho (up, down):  4.735E-05 0.000E+00

     total cpu time spent up to now is      373.3 secs

     End of self-consistent calculation

          k = 0.0000 0.0000 0.0000 (252395 PWs)   bands (ev):

    -9.9949  -9.1414  -9.1050  -9.1047  -9.0380  -9.0376  -8.3903  -7.5258
    -7.4581  -7.4581  -6.7596  -5.8755  -5.8465  -5.8463  -5.6234  -5.6232
    -4.7709  -4.7708  -3.9997  -3.6398  -3.2706  -3.2704  -3.2656  -3.2540
    -3.1350  -3.1131  -3.1128  -3.0852  -3.0849  -2.7209  -2.7208

     the Fermi energy is    -3.1048 ev

!    total energy              =     -77.17059074 Ry
     Harris-Foulkes estimate   =     -77.17059113 Ry
     estimated scf accuracy    <       0.00000045 Ry

     The total energy is the sum of the following terms:

     one-electron contribution =    -269.32971218 Ry
     hartree contribution      =     139.34397053 Ry
     xc contribution           =     -33.49363372 Ry
     ewald contribution        =      86.42528445 Ry
     smearing contrib. (-TS)   =      -0.11649982 Ry

     convergence has been achieved in  10 iterations

     negative rho (up, down):  4.735E-05 0.000E+00

     Forces acting on atoms (cartesian axes, Ry/au):

     atom    1 type  1   force =    -0.00252835    0.00144262    0.00000000
     atom    2 type  1   force =     0.00000011    0.00000007    0.00000000
     atom    3 type  1   force =     0.00251053    0.00144946    0.00000000
     atom    4 type  1   force =    -0.00169163   -0.00380091    0.00000000
     atom    5 type  1   force =     0.00097294    0.00056173    0.00000000
     atom    6 type  1   force =     0.00414163    0.00043922    0.00000000
     atom    7 type  1   force =    -0.00000369    0.02134823    0.00000000
     atom    8 type  1   force =    -0.00413750    0.00043546    0.00000000
     atom    9 type  1   force =    -0.00001483   -0.00291093    0.00000000
     atom   10 type  1   force =     0.00245119    0.00336715    0.00000000
     atom   11 type  1   force =     0.01848627   -0.01067731    0.00000000
     atom   12 type  1   force =     0.00001895   -0.00111445    0.00000000
     atom   13 type  1   force =     0.00168796   -0.00382786    0.00000000
     atom   14 type  1   force =    -0.00095567    0.00057364    0.00000000
     atom   15 type  1   force =    -0.00000899   -0.00000519    0.00000000
     atom   16 type  1   force =    -0.01845789   -0.01065667    0.00000000
     atom   17 type  1   force =    -0.00247104    0.00337574    0.00000000

     Total force =     0.038719     Total SCF correction =     0.000523


     Computing stress (Cartesian axis) and pressure


     negative rho (up, down):  4.735E-05 0.000E+00
          total   stress  (Ry/bohr**3)                   (kbar)     P=   -1.10
  -0.00001116   0.00000000   0.00000000         -1.64      0.00      0.00
   0.00000000  -0.00001117   0.00000000          0.00     -1.64      0.00
   0.00000000   0.00000000  -0.00000002          0.00      0.00     -0.00


     number of scf cycles    =   4
     number of bfgs steps    =   3

     enthalpy old            =     -77.1667851328 Ry
     enthalpy new            =     -77.1705907391 Ry

     CASE: enthalpy_new < enthalpy_old

     new trust radius        =       0.0751151065 bohr
     new conv_thr            =       0.0000010000 Ry

     new unit-cell volume =  20808.60472 a.u.^3 (  3083.51705 Ang^3 )
     density =      0.27448 g/cm^3

CELL_PARAMETERS (alat= 25.26072511)
   0.998150409   0.000000278   0.000000000
  -0.499074964   0.864423194   0.000000000
   0.000000000   0.000000000   1.496177267

ATOMIC_POSITIONS (angstrom)
Al      -0.028767339   2.584492969   0.000000000
Al       2.223809648   1.283916425   0.000000000
Al       4.476392756   2.584483562   0.000000000
Al       6.654722171   1.285478287   0.000000000
Al      -2.224469670   6.419150368   0.000000000
Al       0.007065678   5.120371810   0.000000000
Al       2.223830612   6.515156735   0.000000000
Al       4.440618521   5.120454625   0.000000000
Al      -4.447498356  10.238030213   0.000000000
Al      -2.233444596   9.001085762   0.000000000
Al       0.082824423  10.223524557   0.000000000
Al       8.895129637   2.568693260   0.000000000
Al      11.135629819   1.285445821   0.000000000
Al       6.672086392   6.419153430   0.000000000
Al       8.895145623   5.135650372   0.000000000
Al       4.364816498  10.223512836   0.000000000
Al       6.681044227   9.001087038   0.000000000



     Writing output data file 12al_planar_2x2_vcr.save/
     NEW-OLD atomic charge density approx. for the potential

     negative rho (up, down):  4.744E-05 0.000E+00
     extrapolated charge   50.91721, renormalised to   51.00000

     total cpu time spent up to now is      403.1 secs

     Self-consistent Calculation

     iteration #  1     ecut=    80.00 Ry     beta= 0.40
     Davidson diagonalization with overlap
     ethr =  1.00E-06,  avg # of iterations =  7.0

     negative rho (up, down):  4.778E-05 0.000E+00

     total cpu time spent up to now is      412.4 secs

     total energy              =     -77.17525235 Ry
     Harris-Foulkes estimate   =     -77.57595534 Ry
     estimated scf accuracy    <       0.00113602 Ry

     iteration #  2     ecut=    80.00 Ry     beta= 0.40
     Davidson diagonalization with overlap
     ethr =  2.23E-06,  avg # of iterations =  5.0

     negative rho (up, down):  4.763E-05 0.000E+00

     total cpu time spent up to now is      419.0 secs

     total energy              =     -77.17535256 Ry
     Harris-Foulkes estimate   =     -77.17652184 Ry
     estimated scf accuracy    <       0.00627344 Ry

     iteration #  3     ecut=    80.00 Ry     beta= 0.40
     Davidson diagonalization with overlap
     ethr =  2.23E-06,  avg # of iterations =  4.0

     negative rho (up, down):  4.757E-05 0.000E+00

     total cpu time spent up to now is      424.9 secs

     total energy              =     -77.17583079 Ry
     Harris-Foulkes estimate   =     -77.17592193 Ry
     estimated scf accuracy    <       0.00044987 Ry

     iteration #  4     ecut=    80.00 Ry     beta= 0.40
     Davidson diagonalization with overlap
     ethr =  8.82E-07,  avg # of iterations =  4.0

     negative rho (up, down):  4.749E-05 0.000E+00

     total cpu time spent up to now is      429.7 secs

     total energy              =     -77.17585274 Ry
     Harris-Foulkes estimate   =     -77.17588961 Ry
     estimated scf accuracy    <       0.00020211 Ry

     iteration #  5     ecut=    80.00 Ry     beta= 0.40
     Davidson diagonalization with overlap
     ethr =  3.96E-07,  avg # of iterations =  3.0

     negative rho (up, down):  4.720E-05 0.000E+00

     total cpu time spent up to now is      434.4 secs

     total energy              =     -77.17585667 Ry
     Harris-Foulkes estimate   =     -77.17587372 Ry
     estimated scf accuracy    <       0.00006970 Ry

     iteration #  6     ecut=    80.00 Ry     beta= 0.40
     Davidson diagonalization with overlap
     ethr =  1.37E-07,  avg # of iterations =  5.0

     negative rho (up, down):  4.716E-05 0.000E+00

     total cpu time spent up to now is      440.6 secs

     total energy              =     -77.17586146 Ry
     Harris-Foulkes estimate   =     -77.17588149 Ry
     estimated scf accuracy    <       0.00012164 Ry

     iteration #  7     ecut=    80.00 Ry     beta= 0.40
     Davidson diagonalization with overlap
     ethr =  1.37E-07,  avg # of iterations =  3.0

     negative rho (up, down):  4.718E-05 0.000E+00

     total cpu time spent up to now is      445.7 secs

     total energy              =     -77.17587014 Ry
     Harris-Foulkes estimate   =     -77.17587291 Ry
     estimated scf accuracy    <       0.00001213 Ry

     iteration #  8     ecut=    80.00 Ry     beta= 0.40
     Davidson diagonalization with overlap
     ethr =  2.38E-08,  avg # of iterations =  3.0

     negative rho (up, down):  4.718E-05 0.000E+00

     total cpu time spent up to now is      451.1 secs

     total energy              =     -77.17587084 Ry
     Harris-Foulkes estimate   =     -77.17587172 Ry
     estimated scf accuracy    <       0.00000377 Ry

     iteration #  9     ecut=    80.00 Ry     beta= 0.40
     Davidson diagonalization with overlap
     ethr =  7.39E-09,  avg # of iterations =  6.0

     negative rho (up, down):  4.718E-05 0.000E+00

     total cpu time spent up to now is      457.1 secs

     total energy              =     -77.17587121 Ry
     Harris-Foulkes estimate   =     -77.17587182 Ry
     estimated scf accuracy    <       0.00000386 Ry

     iteration # 10     ecut=    80.00 Ry     beta= 0.40
     Davidson diagonalization with overlap
     ethr =  7.39E-09,  avg # of iterations =  3.0

     negative rho (up, down):  4.718E-05 0.000E+00

     total cpu time spent up to now is      461.8 secs

     End of self-consistent calculation

          k = 0.0000 0.0000 0.0000 (252395 PWs)   bands (ev):

    -9.9948  -9.1340  -9.1106  -9.1104  -9.0245  -9.0242  -8.3846  -7.5181
    -7.4527  -7.4525  -6.7843  -5.8679  -5.8280  -5.8279  -5.6325  -5.6324
    -4.7851  -4.7850  -3.9983  -3.7244  -3.2738  -3.2572  -3.2570  -3.2274
    -3.1269  -3.1153  -3.1150  -3.0743  -3.0740  -2.7025  -2.7024

     the Fermi energy is    -3.0981 ev

!    total energy              =     -77.17587128 Ry
     Harris-Foulkes estimate   =     -77.17587156 Ry
     estimated scf accuracy    <       0.00000036 Ry

     The total energy is the sum of the following terms:

     one-electron contribution =    -269.50172951 Ry
     hartree contribution      =     139.42143421 Ry
     xc contribution           =     -33.47947899 Ry
     ewald contribution        =      86.49753399 Ry
     smearing contrib. (-TS)   =      -0.11363098 Ry

     convergence has been achieved in  10 iterations

     negative rho (up, down):  4.718E-05 0.000E+00

     Forces acting on atoms (cartesian axes, Ry/au):

     atom    1 type  1   force =     0.00072414   -0.00044021    0.00000000
     atom    2 type  1   force =     0.00001747    0.00001008    0.00000000
     atom    3 type  1   force =    -0.00072327   -0.00041758    0.00000000
     atom    4 type  1   force =     0.00027698   -0.00723414    0.00000000
     atom    5 type  1   force =     0.00190877    0.00110203    0.00000000
     atom    6 type  1   force =     0.00613251    0.00390783    0.00000000
     atom    7 type  1   force =    -0.00000537    0.02016450    0.00000000
     atom    8 type  1   force =    -0.00612646    0.00385694    0.00000000
     atom    9 type  1   force =    -0.00001916    0.00084723    0.00000000
     atom   10 type  1   force =     0.00645053    0.00335699    0.00000000
     atom   11 type  1   force =     0.01746029   -0.01008690    0.00000000
     atom   12 type  1   force =     0.00000573   -0.00219356    0.00000000
     atom   13 type  1   force =    -0.00031384   -0.00721033    0.00000000
     atom   14 type  1   force =    -0.00189681    0.00110174    0.00000000
     atom   15 type  1   force =    -0.00001751   -0.00001011    0.00000000
     atom   16 type  1   force =    -0.01747275   -0.01008789    0.00000000
     atom   17 type  1   force =    -0.00640125    0.00333337    0.00000000

     Total force =     0.039391     Total SCF correction =     0.000438


     Computing stress (Cartesian axis) and pressure


     negative rho (up, down):  4.718E-05 0.000E+00
          total   stress  (Ry/bohr**3)                   (kbar)     P=   -1.28
  -0.00001310  -0.00000001  -0.00000000         -1.93     -0.00     -0.00
  -0.00000001  -0.00001309  -0.00000000         -0.00     -1.93     -0.00
   0.00000000   0.00000000   0.00000008          0.00      0.00      0.01


     number of scf cycles    =   5
     number of bfgs steps    =   4

     enthalpy old            =     -77.1705907391 Ry
     enthalpy new            =     -77.1758712796 Ry

     CASE: enthalpy_new < enthalpy_old

     new trust radius        =       0.1125812334 bohr
     new conv_thr            =       0.0000010000 Ry

     new unit-cell volume =  20755.30402 a.u.^3 (  3075.61870 Ang^3 )
     density =      0.27519 g/cm^3

CELL_PARAMETERS (alat= 25.26072511)
   0.996871103   0.000000073   0.000000000
  -0.498435488   0.863315590   0.000000000
   0.000000000   0.000000000   1.496177267

ATOMIC_POSITIONS (angstrom)
Al      -0.043139385   2.589517737   0.000000000
Al       2.220970330   1.282277144   0.000000000
Al       4.485093234   2.589506738   0.000000000
Al       6.637869784   1.280795770   0.000000000
Al      -2.220971949   6.411299178   0.000000000
Al       0.013867350   5.108107036   0.000000000
Al       2.220997618   6.566280878   0.000000000
Al       4.428137147   5.108201243   0.000000000
Al      -4.441784652  10.208265350   0.000000000
Al      -2.232117218   8.998302696   0.000000000
Al       0.134230922  10.180703094   0.000000000
Al       8.883708680   2.564666016   0.000000000
Al      11.129664363   1.280753778   0.000000000
Al       6.662888260   6.411276095   0.000000000
Al       8.883706492   5.129045940   0.000000000
Al       4.307692430  10.180661594   0.000000000
Al       6.673998069   8.998266730   0.000000000



     Writing output data file 12al_planar_2x2_vcr.save/
     NEW-OLD atomic charge density approx. for the potential

     negative rho (up, down):  4.734E-05 0.000E+00
     extrapolated charge   50.86914, renormalised to   51.00000

     total cpu time spent up to now is      491.8 secs

     Self-consistent Calculation

     iteration #  1     ecut=    80.00 Ry     beta= 0.40
     Davidson diagonalization with overlap
     ethr =  1.00E-06,  avg # of iterations =  8.0

     negative rho (up, down):  4.784E-05 0.000E+00

     total cpu time spent up to now is      502.6 secs

     total energy              =     -77.18122480 Ry
     Harris-Foulkes estimate   =     -77.81591829 Ry
     estimated scf accuracy    <       0.00287836 Ry

     iteration #  2     ecut=    80.00 Ry     beta= 0.40
     Davidson diagonalization with overlap
     ethr =  5.64E-06,  avg # of iterations =  5.0

     negative rho (up, down):  4.758E-05 0.000E+00

     total cpu time spent up to now is      509.1 secs

     total energy              =     -77.18166350 Ry
     Harris-Foulkes estimate   =     -77.18451648 Ry
     estimated scf accuracy    <       0.01478672 Ry

     iteration #  3     ecut=    80.00 Ry     beta= 0.40
     Davidson diagonalization with overlap
     ethr =  5.64E-06,  avg # of iterations =  3.0

     negative rho (up, down):  4.754E-05 0.000E+00

     total cpu time spent up to now is      514.8 secs

     total energy              =     -77.18280068 Ry
     Harris-Foulkes estimate   =     -77.18295359 Ry
     estimated scf accuracy    <       0.00081052 Ry

     iteration #  4     ecut=    80.00 Ry     beta= 0.40
     Davidson diagonalization with overlap
     ethr =  1.59E-06,  avg # of iterations =  5.0

     negative rho (up, down):  4.741E-05 0.000E+00

     total cpu time spent up to now is      520.0 secs

     total energy              =     -77.18282306 Ry
     Harris-Foulkes estimate   =     -77.18290624 Ry
     estimated scf accuracy    <       0.00051721 Ry

     iteration #  5     ecut=    80.00 Ry     beta= 0.40
     Davidson diagonalization with overlap
     ethr =  1.01E-06,  avg # of iterations =  4.0

     negative rho (up, down):  4.682E-05 0.000E+00

     total cpu time spent up to now is      524.8 secs

     total energy              =     -77.18281117 Ry
     Harris-Foulkes estimate   =     -77.18286660 Ry
     estimated scf accuracy    <       0.00020096 Ry

     iteration #  6     ecut=    80.00 Ry     beta= 0.40
     Davidson diagonalization with overlap
     ethr =  3.94E-07,  avg # of iterations =  4.0

     negative rho (up, down):  4.684E-05 0.000E+00

     total cpu time spent up to now is      530.6 secs

     total energy              =     -77.18285463 Ry
     Harris-Foulkes estimate   =     -77.18286724 Ry
     estimated scf accuracy    <       0.00007201 Ry

     iteration #  7     ecut=    80.00 Ry     beta= 0.40
     Davidson diagonalization with overlap
     ethr =  1.41E-07,  avg # of iterations =  3.0

     negative rho (up, down):  4.684E-05 0.000E+00

     total cpu time spent up to now is      535.4 secs

     total energy              =     -77.18285531 Ry
     Harris-Foulkes estimate   =     -77.18286018 Ry
     estimated scf accuracy    <       0.00003471 Ry

     iteration #  8     ecut=    80.00 Ry     beta= 0.40
     Davidson diagonalization with overlap
     ethr =  6.81E-08,  avg # of iterations =  1.0

     negative rho (up, down):  4.686E-05 0.000E+00

     total cpu time spent up to now is      540.1 secs

     total energy              =     -77.18285161 Ry
     Harris-Foulkes estimate   =     -77.18285739 Ry
     estimated scf accuracy    <       0.00001747 Ry

     iteration #  9     ecut=    80.00 Ry     beta= 0.40
     Davidson diagonalization with overlap
     ethr =  3.43E-08,  avg # of iterations =  3.0

     negative rho (up, down):  4.687E-05 0.000E+00

     total cpu time spent up to now is      545.7 secs

     total energy              =     -77.18285543 Ry
     Harris-Foulkes estimate   =     -77.18285658 Ry
     estimated scf accuracy    <       0.00000914 Ry

     iteration # 10     ecut=    80.00 Ry     beta= 0.40
     Davidson diagonalization with overlap
     ethr =  1.79E-08,  avg # of iterations =  1.0

     negative rho (up, down):  4.687E-05 0.000E+00

     total cpu time spent up to now is      550.2 secs

     total energy              =     -77.18285586 Ry
     Harris-Foulkes estimate   =     -77.18285601 Ry
     estimated scf accuracy    <       0.00000269 Ry

     iteration # 11     ecut=    80.00 Ry     beta= 0.40
     Davidson diagonalization with overlap
     ethr =  5.27E-09,  avg # of iterations =  3.0

     negative rho (up, down):  4.685E-05 0.000E+00

     total cpu time spent up to now is      555.2 secs

     total energy              =     -77.18285524 Ry
     Harris-Foulkes estimate   =     -77.18285598 Ry
     estimated scf accuracy    <       0.00000226 Ry

     iteration # 12     ecut=    80.00 Ry     beta= 0.40
     Davidson diagonalization with overlap
     ethr =  4.44E-09,  avg # of iterations =  6.0

     negative rho (up, down):  4.686E-05 0.000E+00

     total cpu time spent up to now is      560.8 secs

     End of self-consistent calculation

          k = 0.0000 0.0000 0.0000 (252395 PWs)   bands (ev):

    -9.9939  -9.1209  -9.1170  -9.1167  -9.0063  -9.0060  -8.3836  -7.5061
    -7.4441  -7.4439  -6.8239  -5.8533  -5.8032  -5.8031  -5.6446  -5.6446
    -4.8056  -4.8055  -3.9956  -3.8669  -3.2908  -3.2352  -3.2349  -3.1782
    -3.1165  -3.1162  -3.1130  -3.0597  -3.0594  -2.6765  -2.6763

     the Fermi energy is    -3.0851 ev

!    total energy              =     -77.18285531 Ry
     Harris-Foulkes estimate   =     -77.18285579 Ry
     estimated scf accuracy    <       0.00000065 Ry

     The total energy is the sum of the following terms:

     one-electron contribution =    -269.78996517 Ry
     hartree contribution      =     139.54754991 Ry
     xc contribution           =     -33.45889094 Ry
     ewald contribution        =      86.62936922 Ry
     smearing contrib. (-TS)   =      -0.11091833 Ry

     convergence has been achieved in  12 iterations

     negative rho (up, down):  4.686E-05 0.000E+00

     Forces acting on atoms (cartesian axes, Ry/au):

     atom    1 type  1   force =     0.00517073   -0.00301161    0.00000000
     atom    2 type  1   force =    -0.00001086   -0.00000627    0.00000000
     atom    3 type  1   force =    -0.00519689   -0.00300043    0.00000000
     atom    4 type  1   force =     0.00352460   -0.01188035    0.00000000
     atom    5 type  1   force =     0.00319890    0.00184689    0.00000000
     atom    6 type  1   force =     0.00850478    0.00901773    0.00000000
     atom    7 type  1   force =    -0.00002483    0.01720332    0.00000000
     atom    8 type  1   force =    -0.00852638    0.00899257    0.00000000
     atom    9 type  1   force =    -0.00002276    0.00598379    0.00000000
     atom   10 type  1   force =     0.01206197    0.00285649    0.00000000
     atom   11 type  1   force =     0.01488610   -0.00862316    0.00000000
     atom   12 type  1   force =     0.00002725   -0.00368361    0.00000000
     atom   13 type  1   force =    -0.00351984   -0.01183156    0.00000000
     atom   14 type  1   force =    -0.00317648    0.00186541    0.00000000
     atom   15 type  1   force =     0.00002146    0.00001239    0.00000000
     atom   16 type  1   force =    -0.01491140   -0.00860910    0.00000000
     atom   17 type  1   force =    -0.01200635    0.00286750    0.00000000

     Total force =     0.044226     Total SCF correction =     0.000565


     Computing stress (Cartesian axis) and pressure


     negative rho (up, down):  4.686E-05 0.000E+00
          total   stress  (Ry/bohr**3)                   (kbar)     P=   -1.55
  -0.00001583  -0.00000001   0.00000000         -2.33     -0.00      0.00
  -0.00000001  -0.00001582   0.00000000         -0.00     -2.33      0.00
   0.00000000   0.00000000   0.00000003          0.00      0.00      0.01


     number of scf cycles    =   6
     number of bfgs steps    =   5

     enthalpy old            =     -77.1758712796 Ry
     enthalpy new            =     -77.1828553140 Ry

     CASE: enthalpy_new < enthalpy_old

     new trust radius        =       0.1686553911 bohr
     new conv_thr            =       0.0000010000 Ry

     new unit-cell volume =  20670.18709 a.u.^3 (  3063.00567 Ang^3 )
     density =      0.27632 g/cm^3

CELL_PARAMETERS (alat= 25.26072511)
   0.994824718  -0.000000298   0.000000000
  -0.497412618   0.861543926   0.000000000
   0.000000000   0.000000000   1.496177267

ATOMIC_POSITIONS (angstrom)
Al      -0.062627366   2.595536287   0.000000000
Al       2.216402471   1.279639891   0.000000000
Al       4.495487038   2.595507528   0.000000000
Al       6.613559716   1.270820527   0.000000000
Al      -2.214667633   6.399150508   0.000000000
Al       0.025548353   5.091996545   0.000000000
Al       2.216448134   6.641821242   0.000000000
Al       4.407343299   5.092135655   0.000000000
Al      -4.432643273  10.164696250   0.000000000
Al      -2.226555663   8.992791325   0.000000000
Al       0.211049269  10.115310166   0.000000000
Al       8.865456403   2.557406181   0.000000000
Al      11.117512870   1.270788234   0.000000000
Al       6.647474985   6.399098888   0.000000000
Al       8.865443657   5.118501814   0.000000000
Al       4.221712903  10.115232748   0.000000000
Al       6.659291907   8.992725854   0.000000000



     Writing output data file 12al_planar_2x2_vcr.save/
     NEW-OLD atomic charge density approx. for the potential

     negative rho (up, down):  4.722E-05 0.000E+00
     extrapolated charge   50.79016, renormalised to   51.00000

     total cpu time spent up to now is      590.2 secs

     Self-consistent Calculation

     iteration #  1     ecut=    80.00 Ry     beta= 0.40
     Davidson diagonalization with overlap
     ethr =  1.00E-06,  avg # of iterations =  9.0

     negative rho (up, down):  4.787E-05 0.000E+00

     total cpu time spent up to now is      600.8 secs

     total energy              =     -77.18582121 Ry
     Harris-Foulkes estimate   =     -78.20799486 Ry
     estimated scf accuracy    <       0.00877951 Ry

     iteration #  2     ecut=    80.00 Ry     beta= 0.40
     Davidson diagonalization with overlap
     ethr =  1.72E-05,  avg # of iterations = 11.0

     negative rho (up, down):  4.740E-05 0.000E+00

     total cpu time spent up to now is      607.9 secs

     total energy              =     -77.18629893 Ry
     Harris-Foulkes estimate   =     -77.19664549 Ry
     estimated scf accuracy    <       0.05786248 Ry

     iteration #  3     ecut=    80.00 Ry     beta= 0.40
     Davidson diagonalization with overlap
     ethr =  1.72E-05,  avg # of iterations =  4.0

     negative rho (up, down):  4.712E-05 0.000E+00

     total cpu time spent up to now is      613.6 secs

     total energy              =     -77.19038967 Ry
     Harris-Foulkes estimate   =     -77.19067550 Ry
     estimated scf accuracy    <       0.00241088 Ry

     iteration #  4     ecut=    80.00 Ry     beta= 0.40
     Davidson diagonalization with overlap
     ethr =  4.73E-06,  avg # of iterations =  3.0

     negative rho (up, down):  4.658E-05 0.000E+00

     total cpu time spent up to now is      618.3 secs

     total energy              =     -77.19023281 Ry
     Harris-Foulkes estimate   =     -77.19049054 Ry
     estimated scf accuracy    <       0.00148373 Ry

     iteration #  5     ecut=    80.00 Ry     beta= 0.40
     Davidson diagonalization with overlap
     ethr =  2.91E-06,  avg # of iterations =  4.0

     negative rho (up, down):  4.572E-05 0.000E+00

     total cpu time spent up to now is      623.0 secs

     total energy              =     -77.19006224 Ry
     Harris-Foulkes estimate   =     -77.19039304 Ry
     estimated scf accuracy    <       0.00128450 Ry

     iteration #  6     ecut=    80.00 Ry     beta= 0.40
     Davidson diagonalization with overlap
     ethr =  2.52E-06,  avg # of iterations =  3.0

     negative rho (up, down):  4.576E-05 0.000E+00

     total cpu time spent up to now is      628.1 secs

     total energy              =     -77.19026297 Ry
     Harris-Foulkes estimate   =     -77.19030824 Ry
     estimated scf accuracy    <       0.00027475 Ry

     iteration #  7     ecut=    80.00 Ry     beta= 0.40
     Davidson diagonalization with overlap
     ethr =  5.39E-07,  avg # of iterations =  5.0

     negative rho (up, down):  4.589E-05 0.000E+00

     total cpu time spent up to now is      633.8 secs

     total energy              =     -77.19028535 Ry
     Harris-Foulkes estimate   =     -77.19031654 Ry
     estimated scf accuracy    <       0.00018587 Ry

     iteration #  8     ecut=    80.00 Ry     beta= 0.40
     Davidson diagonalization with overlap
     ethr =  3.64E-07,  avg # of iterations =  1.0

     negative rho (up, down):  4.601E-05 0.000E+00

     total cpu time spent up to now is      638.7 secs

     total energy              =     -77.19027712 Ry
     Harris-Foulkes estimate   =     -77.19029312 Ry
     estimated scf accuracy    <       0.00008242 Ry

     iteration #  9     ecut=    80.00 Ry     beta= 0.40
     Davidson diagonalization with overlap
     ethr =  1.62E-07,  avg # of iterations =  2.0

     negative rho (up, down):  4.616E-05 0.000E+00

     total cpu time spent up to now is      643.6 secs

     total energy              =     -77.19027367 Ry
     Harris-Foulkes estimate   =     -77.19028234 Ry
     estimated scf accuracy    <       0.00002730 Ry

     iteration # 10     ecut=    80.00 Ry     beta= 0.40
     Davidson diagonalization with overlap
     ethr =  5.35E-08,  avg # of iterations = 18.0

     negative rho (up, down):  4.618E-05 0.000E+00

     total cpu time spent up to now is      652.3 secs

     total energy              =     -77.19087768 Ry
     Harris-Foulkes estimate   =     -77.19087676 Ry
     estimated scf accuracy    <       0.00037023 Ry

     iteration # 11     ecut=    80.00 Ry     beta= 0.40
     Davidson diagonalization with overlap
     ethr =  5.35E-08,  avg # of iterations =  1.0

     negative rho (up, down):  4.616E-05 0.000E+00

     total cpu time spent up to now is      656.9 secs

     total energy              =     -77.19090059 Ry
     Harris-Foulkes estimate   =     -77.19087788 Ry
     estimated scf accuracy    <       0.00037541 Ry

     iteration # 12     ecut=    80.00 Ry     beta= 0.40
     Davidson diagonalization with overlap
     ethr =  5.35E-08,  avg # of iterations =  1.0

     negative rho (up, down):  4.617E-05 0.000E+00

     total cpu time spent up to now is      661.6 secs

     total energy              =     -77.19093837 Ry
     Harris-Foulkes estimate   =     -77.19090152 Ry
     estimated scf accuracy    <       0.00046863 Ry

     iteration # 13     ecut=    80.00 Ry     beta= 0.40
     Davidson diagonalization with overlap
     ethr =  5.35E-08,  avg # of iterations =  1.0

     negative rho (up, down):  4.621E-05 0.000E+00

     total cpu time spent up to now is      666.3 secs

     total energy              =     -77.19081953 Ry
     Harris-Foulkes estimate   =     -77.19094027 Ry
     estimated scf accuracy    <       0.00063925 Ry

     iteration # 14     ecut=    80.00 Ry     beta= 0.40
     Davidson diagonalization with overlap
     ethr =  5.35E-08,  avg # of iterations =  4.0

     negative rho (up, down):  4.624E-05 0.000E+00

     total cpu time spent up to now is      672.6 secs

     total energy              =     -77.19080655 Ry
     Harris-Foulkes estimate   =     -77.19083692 Ry
     estimated scf accuracy    <       0.00018029 Ry

     iteration # 15     ecut=    80.00 Ry     beta= 0.40
     Davidson diagonalization with overlap
     ethr =  5.35E-08,  avg # of iterations =  4.0

     negative rho (up, down):  4.625E-05 0.000E+00

     total cpu time spent up to now is      678.0 secs

     total energy              =     -77.19080758 Ry
     Harris-Foulkes estimate   =     -77.19081139 Ry
     estimated scf accuracy    <       0.00005574 Ry

     iteration # 16     ecut=    80.00 Ry     beta= 0.40
     Davidson diagonalization with overlap
     ethr =  5.35E-08,  avg # of iterations =  1.0

     negative rho (up, down):  4.627E-05 0.000E+00

     total cpu time spent up to now is      682.8 secs

     total energy              =     -77.19079936 Ry
     Harris-Foulkes estimate   =     -77.19080816 Ry
     estimated scf accuracy    <       0.00004274 Ry

     iteration # 17     ecut=    80.00 Ry     beta= 0.40
     Davidson diagonalization with overlap
     ethr =  5.35E-08,  avg # of iterations =  1.0

     negative rho (up, down):  4.629E-05 0.000E+00

     total cpu time spent up to now is      687.4 secs

     total energy              =     -77.19079818 Ry
     Harris-Foulkes estimate   =     -77.19080142 Ry
     estimated scf accuracy    <       0.00000933 Ry

     iteration # 18     ecut=    80.00 Ry     beta= 0.40
     Davidson diagonalization with overlap
     ethr =  1.83E-08,  avg # of iterations =  5.0

     negative rho (up, down):  4.624E-05 0.000E+00

     total cpu time spent up to now is      693.4 secs

     End of self-consistent calculation

          k = 0.0000 0.0000 0.0000 (252395 PWs)   bands (ev):

    -9.9937  -9.1254  -9.1249  -9.1008  -8.9845  -8.9842  -8.4026  -7.4896
    -7.4327  -7.4324  -6.8936  -5.8294  -5.7775  -5.7774  -5.6601  -5.6601
    -4.8356  -4.8355  -4.1077  -3.9929  -3.3113  -3.2019  -3.2015  -3.1161
    -3.1157  -3.1040  -3.0909  -3.0424  -3.0421  -2.6450  -2.6445

     the Fermi energy is    -3.0627 ev

!    total energy              =     -77.19080012 Ry
     Harris-Foulkes estimate   =     -77.19080076 Ry
     estimated scf accuracy    <       0.00000094 Ry

     The total energy is the sum of the following terms:

     one-electron contribution =    -270.30117276 Ry
     hartree contribution      =     139.77257849 Ry
     xc contribution           =     -33.43095033 Ry
     ewald contribution        =      86.87982329 Ry
     smearing contrib. (-TS)   =      -0.11107881 Ry

     convergence has been achieved in  18 iterations

     negative rho (up, down):  4.624E-05 0.000E+00

     Forces acting on atoms (cartesian axes, Ry/au):

     atom    1 type  1   force =     0.01118080   -0.00652501    0.00000000
     atom    2 type  1   force =    -0.00001171   -0.00000676    0.00000000
     atom    3 type  1   force =    -0.01119426   -0.00646301    0.00000000
     atom    4 type  1   force =     0.00873672   -0.01784826    0.00000000
     atom    5 type  1   force =     0.00482269    0.00278438    0.00000000
     atom    6 type  1   force =     0.01108038    0.01653927    0.00000000
     atom    7 type  1   force =    -0.00003208    0.01053244    0.00000000
     atom    8 type  1   force =    -0.01108868    0.01649035    0.00000000
     atom    9 type  1   force =    -0.00006042    0.01294536    0.00000000
     atom   10 type  1   force =     0.01986362    0.00132626    0.00000000
     atom   11 type  1   force =     0.00910532   -0.00529400    0.00000000
     atom   12 type  1   force =     0.00002996   -0.00555888    0.00000000
     atom   13 type  1   force =    -0.00873594   -0.01783813    0.00000000
     atom   14 type  1   force =    -0.00479915    0.00280539    0.00000000
     atom   15 type  1   force =     0.00002569    0.00001483    0.00000000
     atom   16 type  1   force =    -0.00910670   -0.00525775    0.00000000
     atom   17 type  1   force =    -0.01981625    0.00135352    0.00000000

     Total force =     0.057437     Total SCF correction =     0.000523


     Computing stress (Cartesian axis) and pressure


     negative rho (up, down):  4.624E-05 0.000E+00
          total   stress  (Ry/bohr**3)                   (kbar)     P=   -1.91
  -0.00001953  -0.00000002   0.00000000         -2.87     -0.00      0.00
  -0.00000002  -0.00001950   0.00000000         -0.00     -2.87      0.00
   0.00000000   0.00000000  -0.00000001          0.00      0.00     -0.00


     number of scf cycles    =   7
     number of bfgs steps    =   6

     enthalpy old            =     -77.1828553140 Ry
     enthalpy new            =     -77.1908001225 Ry

     CASE: enthalpy_new < enthalpy_old

     new trust radius        =       0.2524637065 bohr
     new conv_thr            =       0.0000010000 Ry

     new unit-cell volume =  20528.30261 a.u.^3 (  3041.98056 Ang^3 )
     density =      0.27823 g/cm^3

CELL_PARAMETERS (alat= 25.26072511)
   0.991403769  -0.000001558   0.000000000
  -0.495703234   0.858583186   0.000000000
   0.000000000   0.000000000   1.496177267

ATOMIC_POSITIONS (angstrom)
Al      -0.087749307   2.601253186   0.000000000
Al       2.208759122   1.275227004   0.000000000
Al       4.505415678   2.601239704   0.000000000
Al       6.579344738   1.249238491   0.000000000
Al      -2.202770665   6.379634106   0.000000000
Al       0.046110157   5.073104491   0.000000000
Al       2.208824519   6.752075663   0.000000000
Al       4.371545216   5.073295512   0.000000000
Al      -4.417403186  10.100503823   0.000000000
Al      -2.209785687   8.980466786   0.000000000
Al       0.325570775  10.014002907   0.000000000
Al       8.834946443   2.543697907   0.000000000
Al      11.090775310   1.249189843   0.000000000
Al       6.620348401   6.379530311   0.000000000
Al       8.834923899   5.100881102   0.000000000
Al       4.091881340  10.013889216   0.000000000
Al       6.627218370   8.980369398   0.000000000



     Writing output data file 12al_planar_2x2_vcr.save/
     NEW-OLD atomic charge density approx. for the potential

     negative rho (up, down):  4.756E-05 0.000E+00
     extrapolated charge   50.64779, renormalised to   51.00000

     total cpu time spent up to now is      724.9 secs

     Self-consistent Calculation

     iteration #  1     ecut=    80.00 Ry     beta= 0.40
     Davidson diagonalization with overlap
     ethr =  1.00E-06,  avg # of iterations = 10.0

     negative rho (up, down):  4.809E-05 0.000E+00

     total cpu time spent up to now is      737.6 secs

     total energy              =     -77.18602164 Ry
     Harris-Foulkes estimate   =     -78.91131897 Ry
     estimated scf accuracy    <       0.02019939 Ry

     iteration #  2     ecut=    80.00 Ry     beta= 0.40
     Davidson diagonalization with overlap
     ethr =  3.96E-05,  avg # of iterations =  8.0

     negative rho (up, down):  4.729E-05 0.000E+00

     total cpu time spent up to now is      745.4 secs

     total energy              =     -77.18800979 Ry
     Harris-Foulkes estimate   =     -77.21700508 Ry
     estimated scf accuracy    <       0.17737035 Ry

     iteration #  3     ecut=    80.00 Ry     beta= 0.40
     Davidson diagonalization with overlap
     ethr =  3.96E-05,  avg # of iterations =  4.0

     negative rho (up, down):  4.684E-05 0.000E+00

     total cpu time spent up to now is      752.2 secs

     total energy              =     -77.19955429 Ry
     Harris-Foulkes estimate   =     -77.20016388 Ry
     estimated scf accuracy    <       0.00670086 Ry

     iteration #  4     ecut=    80.00 Ry     beta= 0.40
     Davidson diagonalization with overlap
     ethr =  1.31E-05,  avg # of iterations =  2.0

     negative rho (up, down):  4.492E-05 0.000E+00

     total cpu time spent up to now is      757.1 secs

     total energy              =     -77.19874586 Ry
     Harris-Foulkes estimate   =     -77.19974372 Ry
     estimated scf accuracy    <       0.00453672 Ry

     iteration #  5     ecut=    80.00 Ry     beta= 0.40
     Davidson diagonalization with overlap
     ethr =  8.90E-06,  avg # of iterations =  3.0

     negative rho (up, down):  4.369E-05 0.000E+00

     total cpu time spent up to now is      761.8 secs

     total energy              =     -77.19859507 Ry
     Harris-Foulkes estimate   =     -77.19927890 Ry
     estimated scf accuracy    <       0.00306469 Ry

     iteration #  6     ecut=    80.00 Ry     beta= 0.40
     Davidson diagonalization with overlap
     ethr =  6.01E-06,  avg # of iterations =  4.0

     negative rho (up, down):  4.393E-05 0.000E+00

     total cpu time spent up to now is      767.1 secs

     total energy              =     -77.19906075 Ry
     Harris-Foulkes estimate   =     -77.19912909 Ry
     estimated scf accuracy    <       0.00041740 Ry

     iteration #  7     ecut=    80.00 Ry     beta= 0.40
     Davidson diagonalization with overlap
     ethr =  8.18E-07,  avg # of iterations =  4.0

     negative rho (up, down):  4.432E-05 0.000E+00

     total cpu time spent up to now is      773.1 secs

     total energy              =     -77.19908647 Ry
     Harris-Foulkes estimate   =     -77.19917907 Ry
     estimated scf accuracy    <       0.00058796 Ry

     iteration #  8     ecut=    80.00 Ry     beta= 0.40
     Davidson diagonalization with overlap
     ethr =  8.18E-07,  avg # of iterations =  1.0

     negative rho (up, down):  4.465E-05 0.000E+00

     total cpu time spent up to now is      777.6 secs

     total energy              =     -77.19906215 Ry
     Harris-Foulkes estimate   =     -77.19910644 Ry
     estimated scf accuracy    <       0.00020240 Ry

     iteration #  9     ecut=    80.00 Ry     beta= 0.40
     Davidson diagonalization with overlap
     ethr =  3.97E-07,  avg # of iterations =  3.0

     negative rho (up, down):  4.469E-05 0.000E+00

     total cpu time spent up to now is      782.9 secs

     total energy              =     -77.19908426 Ry
     Harris-Foulkes estimate   =     -77.19908682 Ry
     estimated scf accuracy    <       0.00001389 Ry

     iteration # 10     ecut=    80.00 Ry     beta= 0.40
     Davidson diagonalization with overlap
     ethr =  2.72E-08,  avg # of iterations = 18.0

     negative rho (up, down):  4.480E-05 0.000E+00

     total cpu time spent up to now is      791.3 secs

     total energy              =     -77.19918979 Ry
     Harris-Foulkes estimate   =     -77.19918907 Ry
     estimated scf accuracy    <       0.00050055 Ry

     iteration # 11     ecut=    80.00 Ry     beta= 0.40
     Davidson diagonalization with overlap
     ethr =  2.72E-08,  avg # of iterations =  2.0

     negative rho (up, down):  4.477E-05 0.000E+00

     total cpu time spent up to now is      796.3 secs

     total energy              =     -77.19919662 Ry
     Harris-Foulkes estimate   =     -77.19919087 Ry
     estimated scf accuracy    <       0.00051579 Ry

     iteration # 12     ecut=    80.00 Ry     beta= 0.40
     Davidson diagonalization with overlap
     ethr =  2.72E-08,  avg # of iterations =  1.0

     negative rho (up, down):  4.487E-05 0.000E+00

     total cpu time spent up to now is      801.1 secs

     total energy              =     -77.19923268 Ry
     Harris-Foulkes estimate   =     -77.19919705 Ry
     estimated scf accuracy    <       0.00052915 Ry

     iteration # 13     ecut=    80.00 Ry     beta= 0.40
     Davidson diagonalization with overlap
     ethr =  2.72E-08,  avg # of iterations =  4.0

     negative rho (up, down):  4.479E-05 0.000E+00

     total cpu time spent up to now is      806.3 secs

     total energy              =     -77.19919467 Ry
     Harris-Foulkes estimate   =     -77.19923513 Ry
     estimated scf accuracy    <       0.00073208 Ry

     iteration # 14     ecut=    80.00 Ry     beta= 0.40
     Davidson diagonalization with overlap
     ethr =  2.72E-08,  avg # of iterations =  2.0

     negative rho (up, down):  4.479E-05 0.000E+00

     total cpu time spent up to now is      811.1 secs

     total energy              =     -77.19917745 Ry
     Harris-Foulkes estimate   =     -77.19919624 Ry
     estimated scf accuracy    <       0.00057096 Ry

     iteration # 15     ecut=    80.00 Ry     beta= 0.40
     Davidson diagonalization with overlap
     ethr =  2.72E-08,  avg # of iterations =  1.0

     negative rho (up, down):  4.479E-05 0.000E+00

     total cpu time spent up to now is      815.8 secs

     total energy              =     -77.19916173 Ry
     Harris-Foulkes estimate   =     -77.19917819 Ry
     estimated scf accuracy    <       0.00048352 Ry

     iteration # 16     ecut=    80.00 Ry     beta= 0.40
     Davidson diagonalization with overlap
     ethr =  2.72E-08,  avg # of iterations =  1.0

     negative rho (up, down):  4.480E-05 0.000E+00

     total cpu time spent up to now is      820.3 secs

     total energy              =     -77.19915113 Ry
     Harris-Foulkes estimate   =     -77.19916239 Ry
     estimated scf accuracy    <       0.00040866 Ry

     iteration # 17     ecut=    80.00 Ry     beta= 0.40
     Davidson diagonalization with overlap
     ethr =  2.72E-08,  avg # of iterations =  1.0

     negative rho (up, down):  4.478E-05 0.000E+00

     total cpu time spent up to now is      824.7 secs

     total energy              =     -77.19911197 Ry
     Harris-Foulkes estimate   =     -77.19915213 Ry
     estimated scf accuracy    <       0.00036793 Ry

     iteration # 18     ecut=    80.00 Ry     beta= 0.40
     Davidson diagonalization with overlap
     ethr =  2.72E-08,  avg # of iterations =  6.0

     negative rho (up, down):  4.483E-05 0.000E+00

     total cpu time spent up to now is      831.6 secs

     total energy              =     -77.19906700 Ry
     Harris-Foulkes estimate   =     -77.19911949 Ry
     estimated scf accuracy    <       0.00014427 Ry

     iteration # 19     ecut=    80.00 Ry     beta= 0.40
     Davidson diagonalization with overlap
     c_bands:  1 eigenvalues not converged
     ethr =  2.72E-08,  avg # of iterations = 20.0

     negative rho (up, down):  4.481E-05 0.000E+00

     total cpu time spent up to now is      840.5 secs

     total energy              =     -77.19912383 Ry
     Harris-Foulkes estimate   =     -77.19920823 Ry
     estimated scf accuracy    <       0.00061403 Ry

     iteration # 20     ecut=    80.00 Ry     beta= 0.40
     Davidson diagonalization with overlap
     ethr =  2.72E-08,  avg # of iterations =  4.0

     negative rho (up, down):  4.484E-05 0.000E+00

     total cpu time spent up to now is      847.1 secs

     total energy              =     -77.19910349 Ry
     Harris-Foulkes estimate   =     -77.19913444 Ry
     estimated scf accuracy    <       0.00022887 Ry

     iteration # 21     ecut=    80.00 Ry     beta= 0.40
     Davidson diagonalization with overlap
     ethr =  2.72E-08,  avg # of iterations =  4.0

     negative rho (up, down):  4.487E-05 0.000E+00

     total cpu time spent up to now is      853.0 secs

     total energy              =     -77.19909170 Ry
     Harris-Foulkes estimate   =     -77.19910721 Ry
     estimated scf accuracy    <       0.00009357 Ry

     iteration # 22     ecut=    80.00 Ry     beta= 0.40
     Davidson diagonalization with overlap
     ethr =  2.72E-08,  avg # of iterations = 18.0

     negative rho (up, down):  4.486E-05 0.000E+00

     total cpu time spent up to now is      860.8 secs

     total energy              =     -77.19912947 Ry
     Harris-Foulkes estimate   =     -77.19914810 Ry
     estimated scf accuracy    <       0.00030044 Ry

     iteration # 23     ecut=    80.00 Ry     beta= 0.40
     Davidson diagonalization with overlap
     ethr =  2.72E-08,  avg # of iterations =  1.0

     negative rho (up, down):  4.486E-05 0.000E+00

     total cpu time spent up to now is      865.3 secs

     total energy              =     -77.19912183 Ry
     Harris-Foulkes estimate   =     -77.19913034 Ry
     estimated scf accuracy    <       0.00021990 Ry

     iteration # 24     ecut=    80.00 Ry     beta= 0.40
     Davidson diagonalization with overlap
     ethr =  2.72E-08,  avg # of iterations =  1.0

     negative rho (up, down):  4.486E-05 0.000E+00

     total cpu time spent up to now is      869.7 secs

     total energy              =     -77.19911901 Ry
[...]

          k = 0.0000 0.0000 0.0000 (252395 PWs)   bands (ev):

   -11.1672 -10.1100  -9.9928  -9.7261  -9.6047  -8.8038  -8.7436  -8.3484
    -8.1896  -6.5534  -6.1697  -5.9969  -5.5552  -5.1781  -5.0956  -4.9599
    -4.9201  -4.6904  -4.6125  -4.5998  -4.2912  -4.2519  -3.5143  -3.4581
    -3.2805  -3.2004  -2.3318  -2.2673  -1.9207  -1.8374  -1.4271

     the Fermi energy is    -2.9706 ev

!    total energy              =     -78.04107529 Ry
     Harris-Foulkes estimate   =     -78.04107530 Ry
     estimated scf accuracy    <          1.4E-09 Ry

     The total energy is the sum of the following terms:

     one-electron contribution =    -362.12692248 Ry
     hartree contribution      =     186.05814488 Ry
     xc contribution           =     -34.73875685 Ry
     ewald contribution        =     132.75501478 Ry
     smearing contrib. (-TS)   =       0.01144437 Ry

     convergence has been achieved in   3 iterations

     negative rho (up, down):  5.718E-06 0.000E+00

     Forces acting on atoms (cartesian axes, Ry/au):

     atom    1 type  1   force =    -0.00000128   -0.00000210    0.00000000
     atom    2 type  1   force =     0.00000270    0.00000156    0.00000000
     atom    3 type  1   force =     0.00000025    0.00000014    0.00000000
     atom    4 type  1   force =     0.00000064    0.00000073    0.00000000
     atom    5 type  1   force =    -0.00000057   -0.00000033    0.00000000
     atom    6 type  1   force =    -0.00000162   -0.00000064    0.00000000
     atom    7 type  1   force =     0.00000269   -0.00000326    0.00000000
     atom    8 type  1   force =     0.00000095    0.00000019    0.00000000
     atom    9 type  1   force =    -0.00000246   -0.00000006    0.00000000
     atom   10 type  1   force =    -0.00000136   -0.00000108    0.00000000
     atom   11 type  1   force =    -0.00000147    0.00000396    0.00000000
     atom   12 type  1   force =     0.00000033    0.00000117    0.00000000
     atom   13 type  1   force =     0.00000150    0.00000163    0.00000000
     atom   14 type  1   force =     0.00000117   -0.00000030    0.00000000
     atom   15 type  1   force =     0.00000056    0.00000033    0.00000000
     atom   16 type  1   force =    -0.00000420   -0.00000242    0.00000000
     atom   17 type  1   force =     0.00000216    0.00000049    0.00000000

     Total force =     0.000010     Total SCF correction =     0.000033
     SCF correction compared to forces is large: reduce conv_thr to get better values


     Computing stress (Cartesian axis) and pressure


     negative rho (up, down):  5.718E-06 0.000E+00
          total   stress  (Ry/bohr**3)                   (kbar)     P=   -0.00
   0.00000000  -0.00000000   0.00000000          0.00     -0.00      0.00
  -0.00000000   0.00000000   0.00000000         -0.00      0.00      0.00
   0.00000000   0.00000000  -0.00000001          0.00      0.00     -0.00


     bfgs converged in 141 scf cycles and 139 bfgs steps
     (criteria: energy <  1.0E-05 Ry, force <  1.0E-04Ry/Bohr, cell <  5.0E-05kbar)

     End of BFGS Geometry Optimization

     Final enthalpy =     -78.0410752943 Ry
Begin final coordinates
     new unit-cell volume =  15267.64415 a.u.^3 (  2262.43141 Ang^3 )
     density =      0.37410 g/cm^3

CELL_PARAMETERS (alat= 25.26072511)
   0.767951828  -0.208159411   0.000000000
  -0.564247252   0.977304909   0.000000000
   0.000000000   0.000000000   1.496177267

ATOMIC_POSITIONS (angstrom)
Al      -0.273926665   3.192589629   0.000000000
Al       1.426687824   0.823697837   0.000000000
Al       3.646796753   2.105520919   0.000000000
Al       4.624174697  -0.199711756   0.000000000
Al      -2.050840101   7.525359292   0.000000000
Al      -2.139457083   4.943991394   0.000000000
Al       0.361595452   6.093649918   0.000000000
Al       2.139124990   4.104544189   0.000000000
Al      -4.914651801  11.230607185   0.000000000
Al      -4.330649457   8.739271489   0.000000000
Al      -2.084526592  10.330481151   0.000000000
Al       7.180955661  -0.285524262   0.000000000
Al       9.009280941  -2.029949217   0.000000000
Al       3.343162765   6.361751599   0.000000000
Al       5.834932088   3.368839919   0.000000000
Al       0.151306283   8.796810169   0.000000000
Al       2.746638390   8.817313021   0.000000000
End final coordinates



     Writing output data file 12al_planar_2x2_vcr.save/

     A final scf calculation at the relaxed structure.
     The G-vectors are recalculated for the final unit cell
     Results may differ from those at the preceding step.
 
     Parallelization info
     --------------------
     sticks:   dense  smooth     PW     G-vecs:    dense   smooth      PW
     Min        1287    1287    322               184467   184467   23072
     Max        1288    1288    323               184472   184472   23075
     Sum       10301   10301   2577              1475755  1475755  184583
 


     bravais-lattice index     =            4
     lattice parameter (alat)  =      25.2607  a.u.
     unit-cell volume          =   15267.6441 (a.u.)^3
     number of atoms/cell      =           17
     number of atomic types    =            1
     number of electrons       =        51.00
     number of Kohn-Sham states=           31
     kinetic-energy cutoff     =      80.0000  Ry
     charge density cutoff     =     320.0000  Ry
     convergence threshold     =      1.0E-08
     mixing beta               =       0.4000
     number of iterations used =            8  plain     mixing
     Exchange-correlation      = PBE ( 1  4  3  4 0 0)

     celldm(1)=  25.260725  celldm(2)=   0.000000  celldm(3)=   1.496177
     celldm(4)=   0.000000  celldm(5)=   0.000000  celldm(6)=   0.000000

     crystal axes: (cart. coord. in units of alat)
               a(1) = (   0.767952  -0.208159   0.000000 )  
               a(2) = (  -0.564247   0.977305   0.000000 )  
               a(3) = (   0.000000   0.000000   1.496177 )  

     reciprocal axes: (cart. coord. in units 2 pi/alat)
               b(1) = (  1.543756  0.891288  0.000000 )  
               b(2) = (  0.328810  1.213060  0.000000 )  
               b(3) = (  0.000000  0.000000  0.668370 )  


     PseudoPot. # 1 for Al read from file:
     ./Al.upf
     MD5 check sum: 4974d48a734c9d7d1eb6780a1419d19d
     Pseudo is Norm-conserving + core correction, Zval =  3.0
     Generated using ONCVPSP code by D. R. Hamann
     Using radial grid of 1876 points,  6 beta functions with: 
                l(1) =   0
                l(2) =   0
                l(3) =   1
                l(4) =   1
                l(5) =   2
                l(6) =   2

     atomic species   valence    mass     pseudopotential
        Al             3.00    29.98200     Al( 1.00)

      4 Sym. Ops. (no inversion) found ( 2 have fractional translation)



   Cartesian axes

     site n.     atom                  positions (alat units)
         1           Al  tau(   1) = (  -0.0204921   0.2388340   0.0000000  )
         2           Al  tau(   2) = (   0.1067289   0.0616199   0.0000000  )
         3           Al  tau(   3) = (   0.2728127   0.1575116   0.0000000  )
         4           Al  tau(   4) = (   0.3459293  -0.0149402   0.0000000  )
         5           Al  tau(   5) = (  -0.1534210   0.5629636   0.0000000  )
         6           Al  tau(   6) = (  -0.1600504   0.3698544   0.0000000  )
         7           Al  tau(   7) = (   0.0270505   0.4558590   0.0000000  )
         8           Al  tau(   8) = (   0.1600255   0.3070563   0.0000000  )
         9           Al  tau(   9) = (  -0.3676595   0.8401490   0.0000000  )
        10           Al  tau(  10) = (  -0.3239710   0.6537750   0.0000000  )
        11           Al  tau(  11) = (  -0.1559411   0.7728116   0.0000000  )
        12           Al  tau(  12) = (   0.5371991  -0.0213597   0.0000000  )
        13           Al  tau(  13) = (   0.6739741  -0.1518582   0.0000000  )
        14           Al  tau(  14) = (   0.2500982   0.4759154   0.0000000  )
        15           Al  tau(  15) = (   0.4365046   0.2520191   0.0000000  )
        16           Al  tau(  16) = (   0.0113191   0.6580794   0.0000000  )
        17           Al  tau(  17) = (   0.2054729   0.6596132   0.0000000  )

     number of k points=     1  Methfessel-Paxton smearing, width (Ry)=  0.0500
                       cart. coord. in units 2pi/alat
        k(    1) = (   0.0000000   0.0000000   0.0000000), wk =   2.0000000

     Dense  grid:  1475755 G-vectors     FFT dimensions: ( 120, 180, 216)

     Estimated max dynamical RAM per process >     336.89 MB

     Estimated total dynamical RAM >       2.63 GB

     Initial potential from superposition of free atoms

     starting charge   50.95840, renormalised to   51.00000

     negative rho (up, down):  4.058E-05 0.000E+00
     Starting wfcs are   68 randomized atomic wfcs

     total cpu time spent up to now is    12087.2 secs

     Self-consistent Calculation

     iteration #  1     ecut=    80.00 Ry     beta= 0.40
     Davidson diagonalization with overlap
     ethr =  1.00E-06,  avg # of iterations = 14.0

     negative rho (up, down):  6.951E-06 0.000E+00

     total cpu time spent up to now is    12104.9 secs

     total energy              =     -78.04823194 Ry
     Harris-Foulkes estimate   =     -78.20715759 Ry
     estimated scf accuracy    <       0.45390955 Ry

     iteration #  2     ecut=    80.00 Ry     beta= 0.40
     Davidson diagonalization with overlap
     ethr =  8.90E-04,  avg # of iterations =  1.0

     negative rho (up, down):  5.719E-06 0.000E+00

     total cpu time spent up to now is    12111.2 secs

     total energy              =     -78.03001824 Ry
     Harris-Foulkes estimate   =     -78.07075318 Ry
     estimated scf accuracy    <       0.09715471 Ry

     iteration #  3     ecut=    80.00 Ry     beta= 0.40
     Davidson diagonalization with overlap
     ethr =  1.90E-04,  avg # of iterations =  3.0

     negative rho (up, down):  5.822E-06 0.000E+00

     total cpu time spent up to now is    12117.1 secs

     total energy              =     -78.03150763 Ry
     Harris-Foulkes estimate   =     -78.04793436 Ry
     estimated scf accuracy    <       0.05575393 Ry

     iteration #  4     ecut=    80.00 Ry     beta= 0.40
     Davidson diagonalization with overlap
     ethr =  1.09E-04,  avg # of iterations =  2.0

     negative rho (up, down):  5.864E-06 0.000E+00

     total cpu time spent up to now is    12123.3 secs

     total energy              =     -78.03946729 Ry
     Harris-Foulkes estimate   =     -78.04143376 Ry
     estimated scf accuracy    <       0.00725878 Ry

     iteration #  5     ecut=    80.00 Ry     beta= 0.40
     Davidson diagonalization with overlap
     ethr =  1.42E-05,  avg # of iterations =  3.0

     negative rho (up, down):  5.789E-06 0.000E+00

     total cpu time spent up to now is    12129.7 secs

     total energy              =     -78.04078315 Ry
     Harris-Foulkes estimate   =     -78.04106539 Ry
     estimated scf accuracy    <       0.00092029 Ry

     iteration #  6     ecut=    80.00 Ry     beta= 0.40
     Davidson diagonalization with overlap
     ethr =  1.80E-06,  avg # of iterations =  3.0

     negative rho (up, down):  5.773E-06 0.000E+00

     total cpu time spent up to now is    12136.7 secs

     total energy              =     -78.04094065 Ry
     Harris-Foulkes estimate   =     -78.04100130 Ry
     estimated scf accuracy    <       0.00019244 Ry

     iteration #  7     ecut=    80.00 Ry     beta= 0.40
     Davidson diagonalization with overlap
     ethr =  3.77E-07,  avg # of iterations =  3.0

     negative rho (up, down):  5.757E-06 0.000E+00

     total cpu time spent up to now is    12142.6 secs

     total energy              =     -78.04094935 Ry
     Harris-Foulkes estimate   =     -78.04099243 Ry
     estimated scf accuracy    <       0.00014607 Ry

     iteration #  8     ecut=    80.00 Ry     beta= 0.40
     Davidson diagonalization with overlap
     ethr =  2.86E-07,  avg # of iterations =  2.0

     negative rho (up, down):  5.746E-06 0.000E+00

     total cpu time spent up to now is    12148.8 secs

     total energy              =     -78.04097000 Ry
     Harris-Foulkes estimate   =     -78.04097331 Ry
     estimated scf accuracy    <       0.00001410 Ry

     iteration #  9     ecut=    80.00 Ry     beta= 0.40
     Davidson diagonalization with overlap
     ethr =  2.77E-08,  avg # of iterations =  2.0

     negative rho (up, down):  5.736E-06 0.000E+00

     total cpu time spent up to now is    12155.5 secs

     total energy              =     -78.04097218 Ry
     Harris-Foulkes estimate   =     -78.04097293 Ry
     estimated scf accuracy    <       0.00000200 Ry

     iteration # 10     ecut=    80.00 Ry     beta= 0.40
     Davidson diagonalization with overlap
     ethr =  3.93E-09,  avg # of iterations =  3.0

     negative rho (up, down):  5.727E-06 0.000E+00

     total cpu time spent up to now is    12162.0 secs

     total energy              =     -78.04097241 Ry
     Harris-Foulkes estimate   =     -78.04097266 Ry
     estimated scf accuracy    <       0.00000059 Ry

     iteration # 11     ecut=    80.00 Ry     beta= 0.40
     Davidson diagonalization with overlap
     ethr =  1.15E-09,  avg # of iterations =  3.0

     negative rho (up, down):  5.723E-06 0.000E+00

     total cpu time spent up to now is    12167.7 secs

     total energy              =     -78.04097246 Ry
     Harris-Foulkes estimate   =     -78.04097251 Ry
     estimated scf accuracy    <       0.00000015 Ry

     iteration # 12     ecut=    80.00 Ry     beta= 0.40
     Davidson diagonalization with overlap
     ethr =  2.99E-10,  avg # of iterations =  3.0

     negative rho (up, down):  5.721E-06 0.000E+00

     total cpu time spent up to now is    12173.5 secs

     total energy              =     -78.04097245 Ry
     Harris-Foulkes estimate   =     -78.04097246 Ry
     estimated scf accuracy    <       0.00000002 Ry

     iteration # 13     ecut=    80.00 Ry     beta= 0.40
     Davidson diagonalization with overlap
     ethr =  4.45E-11,  avg # of iterations =  4.0

     negative rho (up, down):  5.720E-06 0.000E+00

     total cpu time spent up to now is    12181.0 secs

     total energy              =     -78.04097244 Ry
     Harris-Foulkes estimate   =     -78.04097245 Ry
     estimated scf accuracy    <       0.00000002 Ry

     iteration # 14     ecut=    80.00 Ry     beta= 0.40
     Davidson diagonalization with overlap
     ethr =  4.08E-11,  avg # of iterations =  2.0

     negative rho (up, down):  5.719E-06 0.000E+00

     total cpu time spent up to now is    12186.1 secs

     End of self-consistent calculation

          k = 0.0000 0.0000 0.0000 (184583 PWs)   bands (ev):

   -11.1672 -10.1100  -9.9928  -9.7260  -9.6047  -8.8038  -8.7435  -8.3485
    -8.1896  -6.5534  -6.1697  -5.9970  -5.5552  -5.1781  -5.0955  -4.9599
    -4.9200  -4.6904  -4.6125  -4.5998  -4.2912  -4.2519  -3.5143  -3.4581
    -3.2805  -3.2004  -2.3318  -2.2673  -1.9207  -1.8374  -1.4271

     the Fermi energy is    -2.9706 ev

!    total energy              =     -78.04097243 Ry
     Harris-Foulkes estimate   =     -78.04097244 Ry
     estimated scf accuracy    <          6.5E-10 Ry

     The total energy is the sum of the following terms:

     one-electron contribution =    -362.12676315 Ry
     hartree contribution      =     186.05811925 Ry
     xc contribution           =     -34.73878833 Ry
     ewald contribution        =     132.75501478 Ry
     smearing contrib. (-TS)   =       0.01144502 Ry

     convergence has been achieved in  14 iterations

     negative rho (up, down):  5.719E-06 0.000E+00

     Forces acting on atoms (cartesian axes, Ry/au):

     atom    1 type  1   force =    -0.00000588   -0.00000221    0.00000000
     atom    2 type  1   force =    -0.00000062   -0.00000036    0.00000000
     atom    3 type  1   force =     0.00000170    0.00000098    0.00000000
     atom    4 type  1   force =     0.00000445   -0.00000036    0.00000000
     atom    5 type  1   force =    -0.00000718   -0.00000415    0.00000000
     atom    6 type  1   force =    -0.00000160   -0.00000012    0.00000000
     atom    7 type  1   force =     0.00000694   -0.00000278    0.00000000
     atom    8 type  1   force =     0.00000191    0.00000403    0.00000000
     atom    9 type  1   force =    -0.00000486   -0.00000399    0.00000000
     atom   10 type  1   force =    -0.00000091   -0.00000133    0.00000000
     atom   11 type  1   force =     0.00000106    0.00000740    0.00000000
     atom   12 type  1   force =     0.00000119    0.00000088    0.00000000
     atom   13 type  1   force =    -0.00000194    0.00000513    0.00000000
     atom   14 type  1   force =     0.00000136    0.00000059    0.00000000
     atom   15 type  1   force =     0.00000547    0.00000316    0.00000000
     atom   16 type  1   force =    -0.00000457   -0.00000264    0.00000000
     atom   17 type  1   force =     0.00000347   -0.00000424    0.00000000

     Total force =     0.000021     Total SCF correction =     0.000013
     SCF correction compared to forces is large: reduce conv_thr to get better values


     Computing stress (Cartesian axis) and pressure


     negative rho (up, down):  5.719E-06 0.000E+00
          total   stress  (Ry/bohr**3)                   (kbar)     P=    0.00
   0.00000002   0.00000000   0.00000000          0.00      0.00      0.00
   0.00000000   0.00000002   0.00000000          0.00      0.00      0.00
  -0.00000000  -0.00000000  -0.00000001         -0.00     -0.00     -0.00


     Writing output data file 12al_planar_2x2_vcr.save/
 
     init_run     :     16.50s CPU     19.31s WALL (       2 calls)
     electrons    :   7586.18s CPU   7928.86s WALL (     142 calls)
     update_pot   :   1193.06s CPU   1204.31s WALL (     140 calls)
     forces       :    823.96s CPU    848.52s WALL (     142 calls)
     stress       :   2090.15s CPU   2161.49s WALL (     142 calls)

     Called by init_run:
     wfcinit      :      5.98s CPU      8.32s WALL (       2 calls)
     potinit      :      4.14s CPU      4.38s WALL (       2 calls)
     hinit0       :      4.82s CPU      4.95s WALL (       2 calls)

     Called by electrons:
     c_bands      :   5901.14s CPU   6043.76s WALL (    1285 calls)
     sum_band     :    902.71s CPU    913.99s WALL (    1285 calls)
     v_of_rho     :    693.92s CPU    832.80s WALL (    1408 calls)
     mix_rho      :    130.46s CPU    173.54s WALL (    1285 calls)

     Called by c_bands:
     init_us_2    :    136.50s CPU    137.52s WALL (    2572 calls)
     cegterg      :   4842.04s CPU   4982.20s WALL (    1285 calls)

     Called by sum_band:

     Called by *egterg:
     h_psi        :   4371.57s CPU   4466.88s WALL (    6178 calls)
     g_psi        :     20.75s CPU     20.87s WALL (    4891 calls)
     cdiaghg      :     13.41s CPU     13.47s WALL (    6017 calls)

     Called by h_psi:
     h_psi:pot    :   4358.21s CPU   4424.49s WALL (    6178 calls)
     h_psi:calbec :    397.91s CPU    398.38s WALL (    6178 calls)
     vloc_psi     :   3501.54s CPU   3567.09s WALL (    6178 calls)
     add_vuspsi   :    458.69s CPU    458.97s WALL (    6178 calls)

     General routines
     calbec       :    469.57s CPU    470.44s WALL (    6888 calls)
     fft          :    552.89s CPU    656.62s WALL (   17789 calls)
     ffts         :     38.34s CPU     38.83s WALL (    1285 calls)
     fftw         :   3568.88s CPU   3641.12s WALL (  273299 calls)
 
     Parallel routines
     fft_scatt_xy :    793.90s CPU    807.69s WALL (  292373 calls)
     fft_scatt_yz :   1148.49s CPU   1202.06s WALL (  292373 calls)
 
     PWSCF        :     3h15m CPU       15h 3m WALL

      23h
 
   This run was terminated on:  20:11:54  25Nov2020            

=------------------------------------------------------------------------------=
   JOB DONE.
=------------------------------------------------------------------------------=
