
     Program PWSCF v.6.3MaX starts on 26Nov2020 at  9:15:58 

     This program is part of the open-source Quantum ESPRESSO suite
     for quantum simulation of materials; please cite
         "P. Giannozzi et al., J. Phys.:Condens. Matter 21 395502 (2009);
         "P. Giannozzi et al., J. Phys.:Condens. Matter 29 465901 (2017);
          URL http://www.quantum-espresso.org", 
     in publications or presentations arising from this work. More details at
     http://www.quantum-espresso.org/quote

     Parallel version (MPI), running on     8 processors

     MPI processes distributed on     2 nodes
     R & G space division:  proc/nbgrp/npool/nimage =       8
     Waiting for input...
     Reading input from standard input

     Current dimensions of program PWSCF are:
     Max number of different atomic species (ntypx) = 10
     Max number of k-points (npk) =  40000
     Max angular momentum in pseudopotentials (lmaxx) =  3

     Subspace diagonalization in iterative solution of the eigenvalue problem:
     a serial algorithm will be used

 
     Parallelization info
     --------------------
     sticks:   dense  smooth     PW     G-vecs:    dense   smooth      PW
     Min        3123    3123    778               448599   448599   56048
     Max        3124    3124    779               448604   448604   56052
     Sum       24985   24985   6229              3588803  3588803  448403
 


     bravais-lattice index     =            4
     lattice parameter (alat)  =      33.6810  a.u.
     unit-cell volume          =   37130.3117 (a.u.)^3
     number of atoms/cell      =           31
     number of atomic types    =            1
     number of electrons       =        93.00
     number of Kohn-Sham states=           56
     kinetic-energy cutoff     =      80.0000  Ry
     charge density cutoff     =     320.0000  Ry
     convergence threshold     =      1.0E-06
     mixing beta               =       0.4000
     number of iterations used =            8  plain     mixing
     Exchange-correlation      = PBE ( 1  4  3  4 0 0)
     nstep                     =          300


     celldm(1)=  33.680967  celldm(2)=   0.000000  celldm(3)=   1.122133
     celldm(4)=   0.000000  celldm(5)=   0.000000  celldm(6)=   0.000000

     crystal axes: (cart. coord. in units of alat)
               a(1) = (   1.000000   0.000000   0.000000 )  
               a(2) = (  -0.500000   0.866025   0.000000 )  
               a(3) = (   0.000000   0.000000   1.122133 )  

     reciprocal axes: (cart. coord. in units 2 pi/alat)
               b(1) = (  1.000000  0.577350  0.000000 )  
               b(2) = (  0.000000  1.154701  0.000000 )  
               b(3) = (  0.000000  0.000000  0.891160 )  


     PseudoPot. # 1 for Al read from file:
     ./Al.upf
     MD5 check sum: 4974d48a734c9d7d1eb6780a1419d19d
     Pseudo is Norm-conserving + core correction, Zval =  3.0
     Generated using ONCVPSP code by D. R. Hamann
     Using radial grid of 1876 points,  6 beta functions with: 
                l(1) =   0
                l(2) =   0
                l(3) =   1
                l(4) =   1
                l(5) =   2
                l(6) =   2

     atomic species   valence    mass     pseudopotential
        Al             3.00    29.98200     Al( 1.00)

      2 Sym. Ops. (no inversion) found



   Cartesian axes

     site n.     atom                  positions (alat units)
         1           Al  tau(   1) = (  -0.0000000   0.1443393   0.0000000  )
         2           Al  tau(   2) = (   0.1250015   0.0721696   0.0000000  )
         3           Al  tau(   3) = (  -0.1249997   0.3608472   0.0000000  )
         4           Al  tau(   4) = (   0.0000018   0.2886775   0.0000000  )
         5           Al  tau(   5) = (  -0.2499994   0.5773550   0.0000000  )
         6           Al  tau(   6) = (  -0.1249979   0.5051854   0.0000000  )
         7           Al  tau(   7) = (  -0.3749991   0.7938629   0.0000000  )
         8           Al  tau(   8) = (  -0.2499976   0.7216932   0.0000000  )
         9           Al  tau(   9) = (   0.2500011   0.1443403   0.0000000  )
        10           Al  tau(  10) = (   0.3750027   0.0721706   0.0000000  )
        11           Al  tau(  11) = (   0.1250014   0.3608482   0.0000000  )
        12           Al  tau(  12) = (   0.2500030   0.2886785   0.0000000  )
        13           Al  tau(  13) = (   0.0000017   0.5773560   0.0000000  )
        14           Al  tau(  14) = (   0.1250033   0.5051864   0.0000000  )
        15           Al  tau(  15) = (  -0.1249980   0.7938639   0.0000000  )
        16           Al  tau(  16) = (   0.0000036   0.7216942   0.0000000  )
        17           Al  tau(  17) = (   0.5000023   0.1443413   0.0000000  )
        18           Al  tau(  18) = (   0.6250038   0.0721717   0.0000000  )
        19           Al  tau(  19) = (   0.3750026   0.3608492   0.0000000  )
        20           Al  tau(  20) = (   0.5000041   0.2886795   0.0000000  )
        21           Al  tau(  21) = (   0.2500029   0.5773571   0.0000000  )
        22           Al  tau(  22) = (   0.3750044   0.5051874   0.0000000  )
        23           Al  tau(  23) = (   0.1250032   0.7938649   0.0000000  )
        24           Al  tau(  24) = (   0.2500047   0.7216953   0.0000000  )
        25           Al  tau(  25) = (   0.7500035   0.1443423   0.0000000  )
        26           Al  tau(  26) = (   0.8750050   0.0721727   0.0000000  )
        27           Al  tau(  27) = (   0.6250038   0.3608502   0.0000000  )
        28           Al  tau(  28) = (   0.7500053   0.2886805   0.0000000  )
        29           Al  tau(  29) = (   0.6250056   0.5051884   0.0000000  )
        30           Al  tau(  30) = (   0.3750044   0.7938660   0.0000000  )
        31           Al  tau(  31) = (   0.5000059   0.7216963   0.0000000  )

     number of k points=     1  Methfessel-Paxton smearing, width (Ry)=  0.0500
                       cart. coord. in units 2pi/alat
        k(    1) = (   0.0000000   0.0000000   0.0000000), wk =   2.0000000

     Dense  grid:  3588803 G-vectors     FFT dimensions: ( 192, 192, 216)

     Estimated max dynamical RAM per process >       1.15 GB

     Estimated total dynamical RAM >       9.23 GB

     Initial potential from superposition of free atoms

     starting charge   92.92414, renormalised to   93.00000

     negative rho (up, down):  9.278E-05 0.000E+00
     Starting wfcs are  124 randomized atomic wfcs

     total cpu time spent up to now is       28.6 secs

     Self-consistent Calculation

     iteration #  1     ecut=    80.00 Ry     beta= 0.40
     Davidson diagonalization with overlap
     ethr =  1.00E-02,  avg # of iterations =  2.0

     total cpu time spent up to now is       57.6 secs

     total energy              =    -140.64218777 Ry
     Harris-Foulkes estimate   =    -141.23596536 Ry
     estimated scf accuracy    <       1.54844102 Ry

     iteration #  2     ecut=    80.00 Ry     beta= 0.40
     Davidson diagonalization with overlap
     ethr =  1.66E-03,  avg # of iterations =  5.0

     total cpu time spent up to now is       86.2 secs

     total energy              =    -140.21913332 Ry
     Harris-Foulkes estimate   =    -141.45913820 Ry
     estimated scf accuracy    <       6.75498584 Ry

     iteration #  3     ecut=    80.00 Ry     beta= 0.40
     Davidson diagonalization with overlap
     ethr =  1.66E-03,  avg # of iterations =  5.0

     total cpu time spent up to now is      114.8 secs

     total energy              =    -140.82842435 Ry
     Harris-Foulkes estimate   =    -141.02230670 Ry
     estimated scf accuracy    <       1.16397280 Ry

     iteration #  4     ecut=    80.00 Ry     beta= 0.40
     Davidson diagonalization with overlap
     ethr =  1.25E-03,  avg # of iterations =  1.0

     total cpu time spent up to now is      136.3 secs

     total energy              =    -140.90028712 Ry
     Harris-Foulkes estimate   =    -140.94428822 Ry
     estimated scf accuracy    <       0.15160557 Ry

     iteration #  5     ecut=    80.00 Ry     beta= 0.40
     Davidson diagonalization with overlap
     ethr =  1.63E-04,  avg # of iterations =  4.0

     total cpu time spent up to now is      160.8 secs

     total energy              =    -140.91394901 Ry
     Harris-Foulkes estimate   =    -140.95508818 Ry
     estimated scf accuracy    <       0.28915224 Ry

     iteration #  6     ecut=    80.00 Ry     beta= 0.40
     Davidson diagonalization with overlap
     ethr =  1.63E-04,  avg # of iterations =  3.0

     total cpu time spent up to now is      185.0 secs

     total energy              =    -140.93127059 Ry
     Harris-Foulkes estimate   =    -140.93388083 Ry
     estimated scf accuracy    <       0.01122898 Ry

     iteration #  7     ecut=    80.00 Ry     beta= 0.40
     Davidson diagonalization with overlap
     ethr =  1.21E-05,  avg # of iterations = 10.0

     total cpu time spent up to now is      223.2 secs

     total energy              =    -140.93538495 Ry
     Harris-Foulkes estimate   =    -140.93751401 Ry
     estimated scf accuracy    <       0.01385599 Ry

     iteration #  8     ecut=    80.00 Ry     beta= 0.40
     Davidson diagonalization with overlap
     ethr =  1.21E-05,  avg # of iterations =  3.0

     total cpu time spent up to now is      250.2 secs

     total energy              =    -140.93525982 Ry
     Harris-Foulkes estimate   =    -140.93703633 Ry
     estimated scf accuracy    <       0.01084353 Ry

     iteration #  9     ecut=    80.00 Ry     beta= 0.40
     Davidson diagonalization with overlap
     ethr =  1.17E-05,  avg # of iterations =  1.0

     total cpu time spent up to now is      273.4 secs

     total energy              =    -140.93572726 Ry
     Harris-Foulkes estimate   =    -140.93625659 Ry
     estimated scf accuracy    <       0.00294982 Ry

     iteration # 10     ecut=    80.00 Ry     beta= 0.40
     Davidson diagonalization with overlap
     ethr =  3.17E-06,  avg # of iterations =  5.0

     total cpu time spent up to now is      295.9 secs

     total energy              =    -140.93597314 Ry
     Harris-Foulkes estimate   =    -140.93606867 Ry
     estimated scf accuracy    <       0.00036891 Ry

     iteration # 11     ecut=    80.00 Ry     beta= 0.40
     Davidson diagonalization with overlap
     ethr =  3.97E-07,  avg # of iterations =  6.0

     total cpu time spent up to now is      326.8 secs

     total energy              =    -140.93603114 Ry
     Harris-Foulkes estimate   =    -140.93619038 Ry
     estimated scf accuracy    <       0.00108997 Ry

     iteration # 12     ecut=    80.00 Ry     beta= 0.40
     Davidson diagonalization with overlap
     ethr =  3.97E-07,  avg # of iterations =  4.0

     total cpu time spent up to now is      349.7 secs

     total energy              =    -140.93610396 Ry
     Harris-Foulkes estimate   =    -140.93611490 Ry
     estimated scf accuracy    <       0.00005088 Ry

     iteration # 13     ecut=    80.00 Ry     beta= 0.40
     Davidson diagonalization with overlap
     ethr =  5.47E-08,  avg # of iterations =  4.0

     total cpu time spent up to now is      375.0 secs

     total energy              =    -140.93611119 Ry
     Harris-Foulkes estimate   =    -140.93611392 Ry
     estimated scf accuracy    <       0.00001157 Ry

     iteration # 14     ecut=    80.00 Ry     beta= 0.40
     Davidson diagonalization with overlap
     ethr =  1.24E-08,  avg # of iterations =  3.0

     total cpu time spent up to now is      403.6 secs

     total energy              =    -140.93611235 Ry
     Harris-Foulkes estimate   =    -140.93611355 Ry
     estimated scf accuracy    <       0.00000498 Ry

     iteration # 15     ecut=    80.00 Ry     beta= 0.40
     Davidson diagonalization with overlap
     ethr =  5.36E-09,  avg # of iterations =  4.0

     total cpu time spent up to now is      430.8 secs

     total energy              =    -140.93611200 Ry
     Harris-Foulkes estimate   =    -140.93611356 Ry
     estimated scf accuracy    <       0.00001045 Ry

     iteration # 16     ecut=    80.00 Ry     beta= 0.40
     Davidson diagonalization with overlap
     ethr =  5.36E-09,  avg # of iterations =  3.0

     total cpu time spent up to now is      454.2 secs

     total energy              =    -140.93611241 Ry
     Harris-Foulkes estimate   =    -140.93611269 Ry
     estimated scf accuracy    <       0.00000114 Ry

     iteration # 17     ecut=    80.00 Ry     beta= 0.40
     Davidson diagonalization with overlap
     ethr =  1.23E-09,  avg # of iterations =  5.0

     total cpu time spent up to now is      481.2 secs

     total energy              =    -140.93611215 Ry
     Harris-Foulkes estimate   =    -140.93611250 Ry
     estimated scf accuracy    <       0.00000211 Ry

     iteration # 18     ecut=    80.00 Ry     beta= 0.40
     Davidson diagonalization with overlap
     ethr =  1.23E-09,  avg # of iterations =  3.0

     total cpu time spent up to now is      506.3 secs

     End of self-consistent calculation

          k = 0.0000 0.0000 0.0000 (448403 PWs)   bands (ev):

    -9.9529  -9.4484  -9.4330  -9.4328  -9.4259  -9.4257  -9.1458  -8.4048
    -8.4047  -8.3881  -8.3880  -8.3797  -8.3034  -8.2570  -8.2569  -7.5863
    -6.9324  -6.9323  -6.8233  -6.4865  -6.4773  -6.4771  -6.3701  -6.3699
    -5.4640  -4.8436  -4.8433  -4.8369  -4.7356  -4.7355  -4.4780  -4.4681
    -4.4428  -4.4428  -4.1226  -4.1222  -3.9779  -3.4713  -3.4687  -3.4686
    -3.4576  -3.4575  -3.4017  -3.2744  -3.2743  -3.2223  -3.2073  -2.9743
    -2.9653  -2.9652  -2.9389  -2.5199  -2.5196  -2.4497  -2.4481  -2.4314

     the Fermi energy is    -3.0910 ev

!    total energy              =    -140.93611161 Ry
     Harris-Foulkes estimate   =    -140.93611212 Ry
     estimated scf accuracy    <       0.00000055 Ry

     The total energy is the sum of the following terms:

     one-electron contribution =    -502.03608067 Ry
     hartree contribution      =     259.76312161 Ry
     xc contribution           =     -61.33573287 Ry
     ewald contribution        =     162.75357038 Ry
     smearing contrib. (-TS)   =      -0.08099005 Ry

     convergence has been achieved in  18 iterations

     Forces acting on atoms (cartesian axes, Ry/au):

     atom    1 type  1   force =     0.00002107    0.00215725    0.00000000
     atom    2 type  1   force =     0.00157430   -0.00511962    0.00000000
     atom    3 type  1   force =     0.00190405   -0.00107066    0.00000000
     atom    4 type  1   force =    -0.00000270   -0.00000372    0.00000000
     atom    5 type  1   force =     0.00260305    0.00219773    0.00000000
     atom    6 type  1   force =    -0.00373906    0.00396852    0.00000000
     atom    7 type  1   force =     0.00319518    0.00107940    0.00000000
     atom    8 type  1   force =    -0.00110209   -0.00063167    0.00000000
     atom    9 type  1   force =    -0.00205159    0.00116016    0.00000000
     atom   10 type  1   force =    -0.00045371    0.00029054    0.00000000
     atom   11 type  1   force =    -0.00187848   -0.00108163    0.00000000
     atom   12 type  1   force =     0.00528885    0.00123016    0.00000000
     atom   13 type  1   force =     0.00000523   -0.00229473    0.00000000
     atom   14 type  1   force =     0.00372608    0.00396561    0.00000000
     atom   15 type  1   force =     0.00113174    0.00056833    0.00000000
     atom   16 type  1   force =    -0.00001832   -0.00052001    0.00000000
     atom   17 type  1   force =     0.00000943   -0.00134480    0.00000000
     atom   18 type  1   force =     0.00043563    0.00031256    0.00000000
     atom   19 type  1   force =     0.00061796   -0.00326802    0.00000000
     atom   20 type  1   force =    -0.00000379    0.00134343    0.00000000
     atom   21 type  1   force =    -0.00258443    0.00218325    0.00000000
     atom   22 type  1   force =     0.01313640    0.00752794    0.00000000
     atom   23 type  1   force =    -0.00112033    0.00056060    0.00000000
     atom   24 type  1   force =     0.00109267   -0.00063107    0.00000000
     atom   25 type  1   force =     0.00205895    0.00115284    0.00000000
     atom   26 type  1   force =    -0.00159304   -0.00513240    0.00000000
     atom   27 type  1   force =    -0.00060865   -0.00326110    0.00000000
     atom   28 type  1   force =    -0.00531647    0.00123348    0.00000000
     atom   29 type  1   force =    -0.01314462    0.00751455    0.00000000
     atom   30 type  1   force =    -0.00317330    0.00107002    0.00000000
     atom   31 type  1   force =    -0.00000997   -0.01515694    0.00000000

     Total force =     0.031200     Total SCF correction =     0.000611


     Computing stress (Cartesian axis) and pressure

          total   stress  (Ry/bohr**3)                   (kbar)     P=   -0.57
  -0.00000582   0.00000001   0.00000000         -0.86      0.00      0.00
   0.00000001  -0.00000575   0.00000000          0.00     -0.85      0.00
   0.00000000   0.00000000   0.00000000          0.00      0.00      0.00


     BFGS Geometry Optimization

     number of scf cycles    =   1
     number of bfgs steps    =   0

     enthalpy new            =    -140.9361116098 Ry

     new trust radius        =       0.0151569449 bohr
     new conv_thr            =       0.0000010000 Ry

     new unit-cell volume =  37119.57097 a.u.^3 (  5500.55284 Ang^3 )
     density =      0.28059 g/cm^3

CELL_PARAMETERS (alat= 33.68096681)
   0.999854439   0.000000284   0.000000000
  -0.499926974   0.865900787   0.000000000
   0.000000000   0.000000000   1.122132950

ATOMIC_POSITIONS (angstrom)
Al       0.000011290   2.573359512   0.000000000
Al       2.228435771   1.283400383   0.000000000
Al      -2.226561677   6.429959450   0.000000000
Al       0.000032123   5.144415043   0.000000000
Al      -4.453761085  10.289996592   0.000000000
Al      -2.229514038   9.004824591   0.000000000
Al      -6.681017043  14.147712712   0.000000000
Al      -4.455688066  12.860698456   0.000000000
Al       4.454086852   2.572851410   0.000000000
Al       6.682534951   1.286282360   0.000000000
Al       2.226609190   6.429973106   0.000000000
Al       4.458004087   5.145087348   0.000000000
Al       0.000036609  10.287639084   0.000000000
Al       2.229607973   9.004842508   0.000000000
Al      -2.226936606  14.147461760   0.000000000
Al       0.000057557  12.860776989   0.000000000
Al       8.910349540   2.571545488   0.000000000
Al      11.138177705   1.286313472   0.000000000
Al       6.683102260   6.428835739   0.000000000
Al       8.910375957   5.145166734   0.000000000
Al       4.453838624  10.290027844   0.000000000
Al       6.689759180   9.006746802   0.000000000
Al       2.227044025  14.147477128   0.000000000
Al       4.455817586  12.860737688   0.000000000
Al      13.366606147   2.572886448   0.000000000
Al      15.592276538   1.283451995   0.000000000
Al      11.137625466   6.428858858   0.000000000
Al      13.362737220   5.145128016   0.000000000
Al      11.131026093   9.006759166   0.000000000
Al       6.681130002  14.147766122   0.000000000
Al       8.910406380  12.853071489   0.000000000



     Writing output data file 29al_planar_2x2_vcr.save/
     NEW-OLD atomic charge density approx. for the potential

     negative rho (up, down):  2.992E-07 0.000E+00
     extrapolated charge   92.97311, renormalised to   93.00000

     total cpu time spent up to now is      583.7 secs

     Self-consistent Calculation

     iteration #  1     ecut=    80.00 Ry     beta= 0.40
     Davidson diagonalization with overlap
     ethr =  1.00E-06,  avg # of iterations =  4.0

     negative rho (up, down):  1.476E-07 0.000E+00

     total cpu time spent up to now is      615.0 secs

     total energy              =    -140.93705748 Ry
     Harris-Foulkes estimate   =    -141.07017843 Ry
     estimated scf accuracy    <       0.00009705 Ry

     iteration #  2     ecut=    80.00 Ry     beta= 0.40
     Davidson diagonalization with overlap
     ethr =  1.04E-07,  avg # of iterations =  6.0

     negative rho (up, down):  1.335E-07 0.000E+00

     total cpu time spent up to now is      648.6 secs

     total energy              =    -140.93700513 Ry
     Harris-Foulkes estimate   =    -140.93722714 Ry
     estimated scf accuracy    <       0.00177283 Ry

     iteration #  3     ecut=    80.00 Ry     beta= 0.40
     Davidson diagonalization with overlap
     ethr =  1.04E-07,  avg # of iterations =  5.0

     negative rho (up, down):  8.723E-08 0.000E+00

     total cpu time spent up to now is      677.7 secs

     total energy              =    -140.93711211 Ry
     Harris-Foulkes estimate   =    -140.93711592 Ry
     estimated scf accuracy    <       0.00001570 Ry

     iteration #  4     ecut=    80.00 Ry     beta= 0.40
     Davidson diagonalization with overlap
     ethr =  1.69E-08,  avg # of iterations =  4.0

     negative rho (up, down):  6.416E-08 0.000E+00

     total cpu time spent up to now is      703.5 secs

     total energy              =    -140.93711171 Ry
     Harris-Foulkes estimate   =    -140.93711531 Ry
     estimated scf accuracy    <       0.00001610 Ry

     iteration #  5     ecut=    80.00 Ry     beta= 0.40
     Davidson diagonalization with overlap
     ethr =  1.69E-08,  avg # of iterations =  3.0

     negative rho (up, down):  2.863E-08 0.000E+00

     total cpu time spent up to now is      726.1 secs

     total energy              =    -140.93711317 Ry
     Harris-Foulkes estimate   =    -140.93711479 Ry
     estimated scf accuracy    <       0.00001043 Ry

     iteration #  6     ecut=    80.00 Ry     beta= 0.40
     Davidson diagonalization with overlap
     ethr =  1.12E-08,  avg # of iterations =  1.0

     negative rho (up, down):  1.251E-08 0.000E+00

     total cpu time spent up to now is      746.2 secs

     total energy              =    -140.93711394 Ry
     Harris-Foulkes estimate   =    -140.93711416 Ry
     estimated scf accuracy    <       0.00000101 Ry

     iteration #  7     ecut=    80.00 Ry     beta= 0.40
     Davidson diagonalization with overlap
     ethr =  1.08E-09,  avg # of iterations =  5.0

     total cpu time spent up to now is      776.8 secs

     total energy              =    -140.93711373 Ry
     Harris-Foulkes estimate   =    -140.93711439 Ry
     estimated scf accuracy    <       0.00000490 Ry

     iteration #  8     ecut=    80.00 Ry     beta= 0.40
     Davidson diagonalization with overlap
     ethr =  1.08E-09,  avg # of iterations =  4.0

     total cpu time spent up to now is      802.7 secs

     End of self-consistent calculation

          k = 0.0000 0.0000 0.0000 (448403 PWs)   bands (ev):

    -9.9533  -9.4487  -9.4335  -9.4334  -9.4255  -9.4253  -9.1440  -8.4041
    -8.4040  -8.3846  -8.3845  -8.3828  -8.3050  -8.2546  -8.2545  -7.5852
    -6.9324  -6.9323  -6.8230  -6.4823  -6.4777  -6.4775  -6.3723  -6.3721
    -5.4694  -4.8398  -4.8395  -4.8351  -4.7365  -4.7364  -4.4767  -4.4673
    -4.4431  -4.4431  -4.1252  -4.1250  -3.9780  -3.4712  -3.4677  -3.4676
    -3.4583  -3.4582  -3.4000  -3.2732  -3.2732  -3.2212  -3.2175  -2.9704
    -2.9635  -2.9635  -2.9412  -2.5172  -2.5169  -2.4464  -2.4452  -2.4337

     the Fermi energy is    -3.0908 ev

!    total energy              =    -140.93711377 Ry
     Harris-Foulkes estimate   =    -140.93711390 Ry
     estimated scf accuracy    <       0.00000023 Ry

     The total energy is the sum of the following terms:

     one-electron contribution =    -502.12506237 Ry
     hartree contribution      =     259.80746237 Ry
     xc contribution           =     -61.33400482 Ry
     ewald contribution        =     162.79516321 Ry
     smearing contrib. (-TS)   =      -0.08067215 Ry

     convergence has been achieved in   8 iterations

     Forces acting on atoms (cartesian axes, Ry/au):

     atom    1 type  1   force =     0.00002107    0.00159496    0.00000000
     atom    2 type  1   force =     0.00118104   -0.00437825    0.00000000
     atom    3 type  1   force =     0.00140618   -0.00080044    0.00000000
     atom    4 type  1   force =    -0.00000863   -0.00000473    0.00000000
     atom    5 type  1   force =     0.00140905    0.00161638    0.00000000
     atom    6 type  1   force =    -0.00328136    0.00325582    0.00000000
     atom    7 type  1   force =     0.00209175    0.00037578    0.00000000
     atom    8 type  1   force =    -0.00077622   -0.00047543    0.00000000
     atom    9 type  1   force =    -0.00200403    0.00112327    0.00000000
     atom   10 type  1   force =    -0.00064489    0.00040838    0.00000000
     atom   11 type  1   force =    -0.00138333   -0.00080793    0.00000000
     atom   12 type  1   force =     0.00444236    0.00120677    0.00000000
     atom   13 type  1   force =     0.00000169   -0.00224673    0.00000000
     atom   14 type  1   force =     0.00325890    0.00324595    0.00000000
     atom   15 type  1   force =     0.00091383    0.00045836    0.00000000
     atom   16 type  1   force =    -0.00001709   -0.00075059    0.00000000
     atom   17 type  1   force =     0.00000217   -0.00107316    0.00000000
     atom   18 type  1   force =     0.00064633    0.00041824    0.00000000
     atom   19 type  1   force =     0.00069325   -0.00196338    0.00000000
     atom   20 type  1   force =     0.00000306    0.00096003    0.00000000
     atom   21 type  1   force =    -0.00138823    0.00161909    0.00000000
     atom   22 type  1   force =     0.01297712    0.00743953    0.00000000
     atom   23 type  1   force =    -0.00090178    0.00046150    0.00000000
     atom   24 type  1   force =     0.00077459   -0.00047110    0.00000000
     atom   25 type  1   force =     0.00200252    0.00110360    0.00000000
     atom   26 type  1   force =    -0.00120805   -0.00438920    0.00000000
     atom   27 type  1   force =    -0.00069184   -0.00196372    0.00000000
     atom   28 type  1   force =    -0.00446104    0.00121601    0.00000000
     atom   29 type  1   force =    -0.01297432    0.00743636    0.00000000
     atom   30 type  1   force =    -0.00207505    0.00037305    0.00000000
     atom   31 type  1   force =    -0.00000906   -0.01498842    0.00000000

     Total force =     0.029258     Total SCF correction =     0.000306


     Computing stress (Cartesian axis) and pressure

          total   stress  (Ry/bohr**3)                   (kbar)     P=   -0.58
  -0.00000595   0.00000001   0.00000000         -0.88      0.00      0.00
   0.00000001  -0.00000588   0.00000000          0.00     -0.87      0.00
   0.00000000   0.00000000   0.00000001          0.00      0.00      0.00


     number of scf cycles    =   2
     number of bfgs steps    =   1

     enthalpy old            =    -140.9361116098 Ry
     enthalpy new            =    -140.9371137722 Ry

     CASE: enthalpy_new < enthalpy_old


     WARNING: bfgs curvature condition failed, Theta= 0.854
     new trust radius        =       0.0227321496 bohr
     new conv_thr            =       0.0000010000 Ry

     new unit-cell volume =  37103.12534 a.u.^3 (  5498.11585 Ang^3 )
     density =      0.28071 g/cm^3

CELL_PARAMETERS (alat= 33.68096681)
   0.999631615   0.000000732   0.000000000
  -0.499815174   0.865709859   0.000000000
   0.000000000   0.000000000   1.122132950

ATOMIC_POSITIONS (angstrom)
Al       0.000029277   2.574240271   0.000000000
Al       2.229004453   1.279392377   0.000000000
Al      -2.224785758   6.427819581   0.000000000
Al       0.000029353   5.143278584   0.000000000
Al      -4.451270315  10.289198849   0.000000000
Al      -2.231775735   9.005661160   0.000000000
Al      -6.677510665  14.145110874   0.000000000
Al      -4.455409870  12.857436076   0.000000000
Al       4.451479652   2.573195554   0.000000000
Al       6.680589962   1.286292029   0.000000000
Al       2.224858117   6.427828173   0.000000000
Al       4.460822836   5.144927543   0.000000000
Al       0.000043653  10.283563581   0.000000000
Al       2.231862701   9.005675337   0.000000000
Al      -2.225636753  14.144745043   0.000000000
Al       0.000049275  12.857415931   0.000000000
Al       8.908368932   2.570042056   0.000000000
Al      11.136147523   1.286336761   0.000000000
Al       6.682146430   6.425452287   0.000000000
Al       8.908392864   5.144922694   0.000000000
Al       4.451373022  10.289230955   0.000000000
Al       6.698689248   9.010737122   0.000000000
Al       2.225766259  14.144761561   0.000000000
Al       4.455547187  12.857481604   0.000000000
Al      13.365245729   2.573222665   0.000000000
Al      15.587718509   1.279440658   0.000000000
Al      11.134619156   6.425479364   0.000000000
Al      13.355933939   5.144977745   0.000000000
Al      11.118131477   9.010745772   0.000000000
Al       6.677651219  14.145166027   0.000000000
Al       8.908418871  12.838218070   0.000000000



     Writing output data file 29al_planar_2x2_vcr.save/
     NEW-OLD atomic charge density approx. for the potential

     negative rho (up, down):  4.806E-07 0.000E+00
     extrapolated charge   92.95881, renormalised to   93.00000

     total cpu time spent up to now is      879.5 secs

     Self-consistent Calculation

     iteration #  1     ecut=    80.00 Ry     beta= 0.40
     Davidson diagonalization with overlap
     ethr =  1.00E-06,  avg # of iterations =  4.0

     negative rho (up, down):  2.407E-07 0.000E+00

     total cpu time spent up to now is      914.4 secs

     total energy              =    -140.93842228 Ry
     Harris-Foulkes estimate   =    -141.14236317 Ry
     estimated scf accuracy    <       0.00010169 Ry

     iteration #  2     ecut=    80.00 Ry     beta= 0.40
     Davidson diagonalization with overlap
     ethr =  1.09E-07,  avg # of iterations =  5.0

     negative rho (up, down):  2.166E-07 0.000E+00

     total cpu time spent up to now is      950.9 secs

     total energy              =    -140.93841062 Ry
     Harris-Foulkes estimate   =    -140.93855225 Ry
     estimated scf accuracy    <       0.00107414 Ry

     iteration #  3     ecut=    80.00 Ry     beta= 0.40
     Davidson diagonalization with overlap
     ethr =  1.09E-07,  avg # of iterations =  4.0

     negative rho (up, down):  1.379E-07 0.000E+00

     total cpu time spent up to now is      978.6 secs

     total energy              =    -140.93847670 Ry
     Harris-Foulkes estimate   =    -140.93848389 Ry
     estimated scf accuracy    <       0.00003117 Ry

     iteration #  4     ecut=    80.00 Ry     beta= 0.40
     Davidson diagonalization with overlap
     ethr =  3.35E-08,  avg # of iterations =  3.0

     negative rho (up, down):  9.521E-08 0.000E+00

     total cpu time spent up to now is     1002.3 secs

     total energy              =    -140.93847712 Ry
     Harris-Foulkes estimate   =    -140.93848103 Ry
     estimated scf accuracy    <       0.00001486 Ry

     iteration #  5     ecut=    80.00 Ry     beta= 0.40
     Davidson diagonalization with overlap
     ethr =  1.60E-08,  avg # of iterations =  4.0

     negative rho (up, down):  4.688E-08 0.000E+00

     total cpu time spent up to now is     1028.0 secs

     total energy              =    -140.93847679 Ry
     Harris-Foulkes estimate   =    -140.93848274 Ry
     estimated scf accuracy    <       0.00003938 Ry

     iteration #  6     ecut=    80.00 Ry     beta= 0.40
     Davidson diagonalization with overlap
     ethr =  1.60E-08,  avg # of iterations =  3.0

     negative rho (up, down):  1.666E-08 0.000E+00

     total cpu time spent up to now is     1052.4 secs

     total energy              =    -140.93848001 Ry
     Harris-Foulkes estimate   =    -140.93848031 Ry
     estimated scf accuracy    <       0.00000228 Ry

     iteration #  7     ecut=    80.00 Ry     beta= 0.40
     Davidson diagonalization with overlap
     ethr =  2.45E-09,  avg # of iterations =  5.0

     negative rho (up, down):  1.226E-08 0.000E+00

     total cpu time spent up to now is     1076.9 secs

     total energy              =    -140.93848022 Ry
     Harris-Foulkes estimate   =    -140.93848057 Ry
     estimated scf accuracy    <       0.00000218 Ry

     iteration #  8     ecut=    80.00 Ry     beta= 0.40
     Davidson diagonalization with overlap
     ethr =  2.34E-09,  avg # of iterations =  2.0

     total cpu time spent up to now is     1100.5 secs

     End of self-consistent calculation

          k = 0.0000 0.0000 0.0000 (448403 PWs)   bands (ev):

    -9.9541  -9.4492  -9.4355  -9.4353  -9.4238  -9.4237  -9.1415  -8.4033
    -8.4032  -8.3871  -8.3800  -8.3799  -8.3070  -8.2509  -8.2508  -7.5837
    -6.9324  -6.9323  -6.8227  -6.4780  -6.4779  -6.4767  -6.3750  -6.3749
    -5.4773  -4.8346  -4.8343  -4.8326  -4.7375  -4.7374  -4.4747  -4.4662
    -4.4436  -4.4436  -4.1292  -4.1290  -3.9782  -3.4712  -3.4669  -3.4667
    -3.4587  -3.4585  -3.3975  -3.2714  -3.2713  -3.2327  -3.2196  -2.9653
    -2.9611  -2.9610  -2.9436  -2.5133  -2.5132  -2.4419  -2.4410  -2.4368

     the Fermi energy is    -3.0905 ev

!    total energy              =    -140.93848025 Ry
     Harris-Foulkes estimate   =    -140.93848044 Ry
     estimated scf accuracy    <       0.00000037 Ry

     The total energy is the sum of the following terms:

     one-electron contribution =    -502.26145539 Ry
     hartree contribution      =     259.87523223 Ry
     xc contribution           =     -61.33159188 Ry
     ewald contribution        =     162.85949244 Ry
     smearing contrib. (-TS)   =      -0.08015764 Ry

     convergence has been achieved in   8 iterations

     Forces acting on atoms (cartesian axes, Ry/au):

     atom    1 type  1   force =     0.00001274    0.00085778    0.00000000
     atom    2 type  1   force =     0.00066312   -0.00341129    0.00000000
     atom    3 type  1   force =     0.00075434   -0.00043515    0.00000000
     atom    4 type  1   force =     0.00000552   -0.00000538    0.00000000
     atom    5 type  1   force =    -0.00018757    0.00081744    0.00000000
     atom    6 type  1   force =    -0.00267537    0.00230567    0.00000000
     atom    7 type  1   force =     0.00061181   -0.00057016    0.00000000
     atom    8 type  1   force =    -0.00037501   -0.00024685    0.00000000
     atom    9 type  1   force =    -0.00195527    0.00110286    0.00000000
     atom   10 type  1   force =    -0.00089931    0.00053454    0.00000000
     atom   11 type  1   force =    -0.00074567   -0.00044169    0.00000000
     atom   12 type  1   force =     0.00332289    0.00116700    0.00000000
     atom   13 type  1   force =     0.00000971   -0.00219666    0.00000000
     atom   14 type  1   force =     0.00264428    0.00229522    0.00000000
     atom   15 type  1   force =     0.00062866    0.00030760    0.00000000
     atom   16 type  1   force =    -0.00001622   -0.00104341    0.00000000
     atom   17 type  1   force =     0.00002002   -0.00072363    0.00000000
     atom   18 type  1   force =     0.00089266    0.00054875    0.00000000
     atom   19 type  1   force =     0.00078682   -0.00022331    0.00000000
     atom   20 type  1   force =     0.00000753    0.00047863    0.00000000
     atom   21 type  1   force =     0.00018800    0.00082974    0.00000000
     atom   22 type  1   force =     0.01283854    0.00737481    0.00000000
     atom   23 type  1   force =    -0.00060353    0.00031672    0.00000000
     atom   24 type  1   force =     0.00036937   -0.00023289    0.00000000
     atom   25 type  1   force =     0.00194689    0.00109136    0.00000000
     atom   26 type  1   force =    -0.00067815   -0.00341362    0.00000000
     atom   27 type  1   force =    -0.00078581   -0.00021885    0.00000000
     atom   28 type  1   force =    -0.00334744    0.00117149    0.00000000
     atom   29 type  1   force =    -0.01282195    0.00737145    0.00000000
     atom   30 type  1   force =    -0.00061459   -0.00057471    0.00000000
     atom   31 type  1   force =     0.00000300   -0.01483349    0.00000000

     Total force =     0.027542     Total SCF correction =     0.000392


     Computing stress (Cartesian axis) and pressure

          total   stress  (Ry/bohr**3)                   (kbar)     P=   -0.60
  -0.00000612   0.00000001   0.00000000         -0.90      0.00      0.00
   0.00000001  -0.00000606   0.00000000          0.00     -0.89      0.00
   0.00000000   0.00000000   0.00000002          0.00      0.00      0.00


     number of scf cycles    =   3
     number of bfgs steps    =   2

     enthalpy old            =    -140.9371137722 Ry
     enthalpy new            =    -140.9384802477 Ry

     CASE: enthalpy_new < enthalpy_old

     new trust radius        =       0.0340907147 bohr
     new conv_thr            =       0.0000010000 Ry

     new unit-cell volume =  37077.95557 a.u.^3 (  5494.38608 Ang^3 )
     density =      0.28090 g/cm^3

CELL_PARAMETERS (alat= 33.68096681)
   0.999290671   0.000001405   0.000000000
  -0.499644118   0.865417416   0.000000000
   0.000000000   0.000000000   1.122132950

ATOMIC_POSITIONS (angstrom)
Al       0.000050739   2.575095666   0.000000000
Al       2.229528129   1.273945941   0.000000000
Al      -2.222502846   6.424787300   0.000000000
Al       0.000035175   5.141537558   0.000000000
Al      -4.448487035  10.287442339   0.000000000
Al      -2.234795644   9.006281632   0.000000000
Al      -6.673113164  14.140524200   0.000000000
Al      -4.454719950  12.852592941   0.000000000
Al       4.447557437   2.573688902   0.000000000
Al       6.677466356   1.286376284   0.000000000
Al       2.222603214   6.424788637   0.000000000
Al       4.464351555   5.144633352   0.000000000
Al       0.000059926  10.277396420   0.000000000
Al       2.234866931   9.006290284   0.000000000
Al      -2.223843581  14.140479884   0.000000000
Al       0.000037267  12.852099595   0.000000000
Al       8.905350870   2.567979137   0.000000000
Al      11.133181868   1.286445362   0.000000000
Al       6.680729282   6.421400669   0.000000000
Al       8.905360975   5.144229067   0.000000000
Al       4.448613671  10.287480941   0.000000000
Al       6.712028591   9.016663263   0.000000000
Al       2.224015118  14.140501375   0.000000000
Al       4.454865686  12.852654181   0.000000000
Al      13.363092964   2.573710494   0.000000000
Al      15.581099810   1.273994868   0.000000000
Al      11.129973857   6.421437475   0.000000000
Al      13.346304121   5.144694246   0.000000000
Al      11.098734300   9.016665388   0.000000000
Al       6.673282439  14.140580239   0.000000000
Al       8.905385847  12.815858284   0.000000000



     Writing output data file 29al_planar_2x2_vcr.save/
     NEW-OLD atomic charge density approx. for the potential

     negative rho (up, down):  7.497E-07 0.000E+00
     extrapolated charge   92.93692, renormalised to   93.00000

     total cpu time spent up to now is     1175.8 secs

     Self-consistent Calculation

     iteration #  1     ecut=    80.00 Ry     beta= 0.40
     Davidson diagonalization with overlap
     ethr =  1.00E-06,  avg # of iterations =  5.0

     negative rho (up, down):  3.815E-07 0.000E+00

     total cpu time spent up to now is     1216.4 secs

     total energy              =    -140.94023184 Ry
     Harris-Foulkes estimate   =    -141.25272907 Ry
     estimated scf accuracy    <       0.00020847 Ry

     iteration #  2     ecut=    80.00 Ry     beta= 0.40
     Davidson diagonalization with overlap
     ethr =  2.24E-07,  avg # of iterations =  5.0

     negative rho (up, down):  3.436E-07 0.000E+00

     total cpu time spent up to now is     1250.9 secs

     total energy              =    -140.94020333 Ry
     Harris-Foulkes estimate   =    -140.94050312 Ry
     estimated scf accuracy    <       0.00225978 Ry

     iteration #  3     ecut=    80.00 Ry     beta= 0.40
     Davidson diagonalization with overlap
     ethr =  2.24E-07,  avg # of iterations =  4.0

     negative rho (up, down):  2.217E-07 0.000E+00

     total cpu time spent up to now is     1278.4 secs

     total energy              =    -140.94034601 Ry
     Harris-Foulkes estimate   =    -140.94035948 Ry
     estimated scf accuracy    <       0.00006308 Ry

     iteration #  4     ecut=    80.00 Ry     beta= 0.40
     Davidson diagonalization with overlap
     ethr =  6.78E-08,  avg # of iterations =  3.0

     negative rho (up, down):  1.634E-07 0.000E+00

     total cpu time spent up to now is     1301.9 secs

     total energy              =    -140.94034545 Ry
     Harris-Foulkes estimate   =    -140.94035353 Ry
     estimated scf accuracy    <       0.00003162 Ry

     iteration #  5     ecut=    80.00 Ry     beta= 0.40
     Davidson diagonalization with overlap
     ethr =  3.40E-08,  avg # of iterations =  4.0

     negative rho (up, down):  5.761E-08 0.000E+00

     total cpu time spent up to now is     1328.8 secs

     total energy              =    -140.94034606 Ry
     Harris-Foulkes estimate   =    -140.94035607 Ry
     estimated scf accuracy    <       0.00006500 Ry

     iteration #  6     ecut=    80.00 Ry     beta= 0.40
     Davidson diagonalization with overlap
     ethr =  3.40E-08,  avg # of iterations =  3.0

     negative rho (up, down):  2.915E-08 0.000E+00

     total cpu time spent up to now is     1355.5 secs

     total energy              =    -140.94035071 Ry
     Harris-Foulkes estimate   =    -140.94035187 Ry
     estimated scf accuracy    <       0.00000518 Ry

     iteration #  7     ecut=    80.00 Ry     beta= 0.40
     Davidson diagonalization with overlap
     ethr =  5.57E-09,  avg # of iterations =  5.0

     negative rho (up, down):  1.781E-08 0.000E+00

     total cpu time spent up to now is     1383.7 secs

     total energy              =    -140.94035120 Ry
     Harris-Foulkes estimate   =    -140.94035240 Ry
     estimated scf accuracy    <       0.00000875 Ry

     iteration #  8     ecut=    80.00 Ry     beta= 0.40
     Davidson diagonalization with overlap
     ethr =  5.57E-09,  avg # of iterations =  3.0

     total cpu time spent up to now is     1407.0 secs

     End of self-consistent calculation

          k = 0.0000 0.0000 0.0000 (448403 PWs)   bands (ev):

    -9.9554  -9.4502  -9.4391  -9.4388  -9.4212  -9.4210  -9.1387  -8.4027
    -8.4026  -8.3923  -8.3747  -8.3745  -8.3100  -8.2452  -8.2451  -7.5822
    -6.9328  -6.9327  -6.8229  -6.4783  -6.4782  -6.4693  -6.3784  -6.3783
    -5.4888  -4.8294  -4.8277  -4.8276  -4.7383  -4.7382  -4.4724  -4.4646
    -4.4444  -4.4443  -4.1351  -4.1350  -3.9788  -3.4714  -3.4671  -3.4670
    -3.4580  -3.4579  -3.3939  -3.2689  -3.2688  -3.2556  -3.2180  -2.9603
    -2.9575  -2.9574  -2.9442  -2.5084  -2.5083  -2.4404  -2.4361  -2.4356

     the Fermi energy is    -3.0903 ev

!    total energy              =    -140.94035124 Ry
     Harris-Foulkes estimate   =    -140.94035174 Ry
     estimated scf accuracy    <       0.00000076 Ry

     The total energy is the sum of the following terms:

     one-electron contribution =    -502.47101197 Ry
     hartree contribution      =     259.97954080 Ry
     xc contribution           =     -61.32843781 Ry
     ewald contribution        =     162.95888684 Ry
     smearing contrib. (-TS)   =      -0.07932909 Ry

     convergence has been achieved in   8 iterations

     Forces acting on atoms (cartesian axes, Ry/au):

     atom    1 type  1   force =    -0.00000722   -0.00005567    0.00000000
     atom    2 type  1   force =     0.00004695   -0.00216084    0.00000000
     atom    3 type  1   force =    -0.00004826    0.00002852    0.00000000
     atom    4 type  1   force =    -0.00000496   -0.00001059    0.00000000
     atom    5 type  1   force =    -0.00226598   -0.00026713    0.00000000
     atom    6 type  1   force =    -0.00188749    0.00111382    0.00000000
     atom    7 type  1   force =    -0.00134236   -0.00182145    0.00000000
     atom    8 type  1   force =     0.00010067    0.00004599    0.00000000
     atom    9 type  1   force =    -0.00188318    0.00107545    0.00000000
     atom   10 type  1   force =    -0.00122016    0.00072717    0.00000000
     atom   11 type  1   force =     0.00004723    0.00004140    0.00000000
     atom   12 type  1   force =     0.00192560    0.00106268    0.00000000
     atom   13 type  1   force =     0.00000175   -0.00214746    0.00000000
     atom   14 type  1   force =     0.00187031    0.00110050    0.00000000
     atom   15 type  1   force =     0.00030147    0.00013115    0.00000000
     atom   16 type  1   force =    -0.00000830   -0.00139424    0.00000000
     atom   17 type  1   force =     0.00001547   -0.00034333    0.00000000
     atom   18 type  1   force =     0.00120366    0.00073315    0.00000000
     atom   19 type  1   force =     0.00090700    0.00209163    0.00000000
     atom   20 type  1   force =     0.00000217   -0.00007680    0.00000000
     atom   21 type  1   force =     0.00225013   -0.00025526    0.00000000
     atom   22 type  1   force =     0.01278231    0.00733950    0.00000000
     atom   23 type  1   force =    -0.00028908    0.00013572    0.00000000
     atom   24 type  1   force =    -0.00010759    0.00004855    0.00000000
     atom   25 type  1   force =     0.00187110    0.00107230    0.00000000
     atom   26 type  1   force =    -0.00002503   -0.00216880    0.00000000
     atom   27 type  1   force =    -0.00090091    0.00210595    0.00000000
     atom   28 type  1   force =    -0.00193343    0.00108217    0.00000000
     atom   29 type  1   force =    -0.01275328    0.00733782    0.00000000
     atom   30 type  1   force =     0.00134055   -0.00179976    0.00000000
     atom   31 type  1   force =     0.00001085   -0.01477210    0.00000000

     Total force =     0.027052     Total SCF correction =     0.000542


     Computing stress (Cartesian axis) and pressure

          total   stress  (Ry/bohr**3)                   (kbar)     P=   -0.62
  -0.00000637   0.00000001   0.00000000         -0.94      0.00      0.00
   0.00000001  -0.00000630   0.00000000          0.00     -0.93      0.00
   0.00000000   0.00000000   0.00000005          0.00      0.00      0.01


     number of scf cycles    =   4
     number of bfgs steps    =   3

     enthalpy old            =    -140.9384802477 Ry
     enthalpy new            =    -140.9403512363 Ry

     CASE: enthalpy_new < enthalpy_old

     new trust radius        =       0.0511188178 bohr
     new conv_thr            =       0.0000010000 Ry

     new unit-cell volume =  37039.75858 a.u.^3 (  5488.72587 Ang^3 )
     density =      0.28119 g/cm^3

CELL_PARAMETERS (alat= 33.68096681)
   0.998772934   0.000002253   0.000000000
  -0.499384516   0.864973602   0.000000000
   0.000000000   0.000000000   1.122132950

ATOMIC_POSITIONS (angstrom)
Al       0.000070243   2.575895283   0.000000000
Al       2.229987506   1.266419264   0.000000000
Al      -2.219475739   6.420440365   0.000000000
Al       0.000034629   5.138891626   0.000000000
Al      -4.445365789  10.284173405   0.000000000
Al      -2.238900768   9.006543107   0.000000000
Al      -6.667497902  14.132906703   0.000000000
Al      -4.453420430  12.845404263   0.000000000
Al       4.441685650   2.574398814   0.000000000
Al       6.672574387   1.286595683   0.000000000
Al       2.219611668   6.420442712   0.000000000
Al       4.468895288   5.144096306   0.000000000
Al       0.000076530  10.268108305   0.000000000
Al       2.238956936   9.006541505   0.000000000
Al      -2.221305824  14.133907727   0.000000000
Al       0.000022281  12.843871723   0.000000000
Al       8.900762167   2.565054199   0.000000000
Al      11.128819796   1.286695448   0.000000000
Al       6.678621166   6.416494132   0.000000000
Al       8.900751228   5.142879484   0.000000000
Al       4.445516648  10.284217316   0.000000000
Al       6.731973209   9.025481015   0.000000000
Al       2.221525457  14.133931199   0.000000000
Al       4.453573678  12.845478381   0.000000000
Al      13.359738005   2.574416221   0.000000000
Al      15.571408685   1.266461915   0.000000000
Al      11.122877702   6.416551357   0.000000000
Al      13.332505738   5.144181975   0.000000000
Al      11.069592982   9.025472875   0.000000000
Al       6.667709382  14.132979198   0.000000000
Al       8.900781438  12.782262691   0.000000000



     Writing output data file 29al_planar_2x2_vcr.save/
     NEW-OLD atomic charge density approx. for the potential

     negative rho (up, down):  1.149E-06 0.000E+00
     extrapolated charge   92.90417, renormalised to   93.00000

     total cpu time spent up to now is     1488.4 secs

     Self-consistent Calculation

     iteration #  1     ecut=    80.00 Ry     beta= 0.40
     Davidson diagonalization with overlap
     ethr =  1.00E-06,  avg # of iterations =  6.0

     negative rho (up, down):  5.937E-07 0.000E+00

     total cpu time spent up to now is     1531.2 secs

     total energy              =    -140.94270808 Ry
     Harris-Foulkes estimate   =    -141.41780102 Ry
     estimated scf accuracy    <       0.00043475 Ry

     iteration #  2     ecut=    80.00 Ry     beta= 0.40
     Davidson diagonalization with overlap
     ethr =  4.67E-07,  avg # of iterations = 18.0

     negative rho (up, down):  5.392E-07 0.000E+00

     total cpu time spent up to now is     1576.4 secs

     total energy              =    -140.94258844 Ry
     Harris-Foulkes estimate   =    -140.94330814 Ry
     estimated scf accuracy    <       0.00576612 Ry

     iteration #  3     ecut=    80.00 Ry     beta= 0.40
     Davidson diagonalization with overlap
     ethr =  4.67E-07,  avg # of iterations =  5.0

     negative rho (up, down):  3.676E-07 0.000E+00

     total cpu time spent up to now is     1607.3 secs

     total energy              =    -140.94291493 Ry
     Harris-Foulkes estimate   =    -140.94294187 Ry
     estimated scf accuracy    <       0.00012035 Ry

     iteration #  4     ecut=    80.00 Ry     beta= 0.40
     Davidson diagonalization with overlap
     ethr =  1.29E-07,  avg # of iterations =  3.0

     negative rho (up, down):  2.662E-07 0.000E+00

     total cpu time spent up to now is     1631.9 secs

     total energy              =    -140.94291300 Ry
     Harris-Foulkes estimate   =    -140.94292895 Ry
     estimated scf accuracy    <       0.00007305 Ry

     iteration #  5     ecut=    80.00 Ry     beta= 0.40
     Davidson diagonalization with overlap
     ethr =  7.85E-08,  avg # of iterations =  4.0

     negative rho (up, down):  1.318E-07 0.000E+00

     total cpu time spent up to now is     1657.9 secs

     total energy              =    -140.94290898 Ry
     Harris-Foulkes estimate   =    -140.94293590 Ry
     estimated scf accuracy    <       0.00017498 Ry

     iteration #  6     ecut=    80.00 Ry     beta= 0.40
     Davidson diagonalization with overlap
     ethr =  7.85E-08,  avg # of iterations =  3.0

     negative rho (up, down):  3.579E-08 0.000E+00

     total cpu time spent up to now is     1682.7 secs

     total energy              =    -140.94292170 Ry
     Harris-Foulkes estimate   =    -140.94292353 Ry
     estimated scf accuracy    <       0.00001135 Ry

     iteration #  7     ecut=    80.00 Ry     beta= 0.40
     Davidson diagonalization with overlap
     ethr =  1.22E-08,  avg # of iterations =  5.0

     negative rho (up, down):  2.611E-08 0.000E+00

     total cpu time spent up to now is     1713.4 secs

     total energy              =    -140.94292348 Ry
     Harris-Foulkes estimate   =    -140.94292454 Ry
     estimated scf accuracy    <       0.00000674 Ry

     iteration #  8     ecut=    80.00 Ry     beta= 0.40
     Davidson diagonalization with overlap
     ethr =  7.24E-09,  avg # of iterations =  2.0

     negative rho (up, down):  1.292E-08 0.000E+00

     total cpu time spent up to now is     1737.4 secs

     total energy              =    -140.94292376 Ry
     Harris-Foulkes estimate   =    -140.94292434 Ry
     estimated scf accuracy    <       0.00000354 Ry

     iteration #  9     ecut=    80.00 Ry     beta= 0.40
     Davidson diagonalization with overlap
     ethr =  3.80E-09,  avg # of iterations =  1.0

     total cpu time spent up to now is     1755.8 secs

     End of self-consistent calculation

          k = 0.0000 0.0000 0.0000 (448403 PWs)   bands (ev):

    -9.9573  -9.4516  -9.4442  -9.4440  -9.4175  -9.4170  -9.1347  -8.4037
    -8.4024  -8.3988  -8.3677  -8.3662  -8.3140  -8.2356  -8.2354  -7.5796
    -6.9334  -6.9333  -6.8243  -6.4783  -6.4781  -6.4592  -6.3821  -6.3816
    -5.5051  -4.8253  -4.8186  -4.8181  -4.7384  -4.7380  -4.4689  -4.4618
    -4.4457  -4.4456  -4.1437  -4.1436  -3.9796  -3.4717  -3.4690  -3.4688
    -3.4557  -3.4553  -3.3877  -3.2892  -3.2655  -3.2652  -3.2156  -2.9608
    -2.9517  -2.9515  -2.9361  -2.5016  -2.5014  -2.4450  -2.4431  -2.4285

     the Fermi energy is    -3.0899 ev

!    total energy              =    -140.94292381 Ry
     Harris-Foulkes estimate   =    -140.94292409 Ry
     estimated scf accuracy    <       0.00000051 Ry

     The total energy is the sum of the following terms:

     one-electron contribution =    -502.78808107 Ry
     hartree contribution      =     260.13522342 Ry
     xc contribution           =     -61.32363370 Ry
     ewald contribution        =     163.11179631 Ry
     smearing contrib. (-TS)   =      -0.07822877 Ry

     convergence has been achieved in   9 iterations

     Forces acting on atoms (cartesian axes, Ry/au):

     atom    1 type  1   force =    -0.00013756   -0.00105077    0.00000000
     atom    2 type  1   force =    -0.00057326   -0.00062272    0.00000000
     atom    3 type  1   force =    -0.00105254    0.00062191    0.00000000
     atom    4 type  1   force =    -0.00000035   -0.00000566    0.00000000
     atom    5 type  1   force =    -0.00498918   -0.00181251    0.00000000
     atom    6 type  1   force =    -0.00075766   -0.00042543    0.00000000
     atom    7 type  1   force =    -0.00420417   -0.00346234    0.00000000
     atom    8 type  1   force =     0.00092479    0.00049736    0.00000000
     atom    9 type  1   force =    -0.00185120    0.00103356    0.00000000
     atom   10 type  1   force =    -0.00163867    0.00091443    0.00000000
     atom   11 type  1   force =     0.00090425    0.00070920    0.00000000
     atom   12 type  1   force =     0.00021981    0.00088537    0.00000000
     atom   13 type  1   force =     0.00005186   -0.00252864    0.00000000
     atom   14 type  1   force =     0.00060269   -0.00045509    0.00000000
     atom   15 type  1   force =    -0.00010278   -0.00018997    0.00000000
     atom   16 type  1   force =    -0.00017216   -0.00152427    0.00000000
     atom   17 type  1   force =     0.00014754    0.00028287    0.00000000
     atom   18 type  1   force =     0.00133026    0.00094627    0.00000000
     atom   19 type  1   force =     0.00082215    0.00535470    0.00000000
     atom   20 type  1   force =     0.00002188   -0.00119637    0.00000000
     atom   21 type  1   force =     0.00513278   -0.00170626    0.00000000
     atom   22 type  1   force =     0.01274302    0.00728185    0.00000000
     atom   23 type  1   force =     0.00012323   -0.00004144    0.00000000
     atom   24 type  1   force =    -0.00072781    0.00039980    0.00000000
     atom   25 type  1   force =     0.00209043    0.00113521    0.00000000
     atom   26 type  1   force =     0.00064244   -0.00039090    0.00000000
     atom   27 type  1   force =    -0.00080194    0.00519411    0.00000000
     atom   28 type  1   force =    -0.00008750    0.00093846    0.00000000
     atom   29 type  1   force =    -0.01281223    0.00742810    0.00000000
     atom   30 type  1   force =     0.00404959   -0.00354243    0.00000000
     atom   31 type  1   force =     0.00010229   -0.01466842    0.00000000

     Total force =     0.029320     Total SCF correction =     0.000417


     Computing stress (Cartesian axis) and pressure

          total   stress  (Ry/bohr**3)                   (kbar)     P=   -0.65
  -0.00000674   0.00000006   0.00000000         -0.99      0.01      0.00
   0.00000006  -0.00000664   0.00000000          0.01     -0.98      0.00
   0.00000000   0.00000000   0.00000005          0.00      0.00      0.01


     number of scf cycles    =   5
     number of bfgs steps    =   4

     enthalpy old            =    -140.9403512363 Ry
     enthalpy new            =    -140.9429238106 Ry

     CASE: enthalpy_new < enthalpy_old

     new trust radius        =       0.0766389412 bohr
     new conv_thr            =       0.0000010000 Ry

     new unit-cell volume =  36981.96940 a.u.^3 (  5480.16239 Ang^3 )
     density =      0.28163 g/cm^3

CELL_PARAMETERS (alat= 33.68096681)
   0.997988538   0.000005206   0.000000000
  -0.498989760   0.864301387   0.000000000
   0.000000000   0.000000000   1.122132950

ATOMIC_POSITIONS (angstrom)
Al       0.000021484   2.576707008   0.000000000
Al       2.230448907   1.255768924   0.000000000
Al      -2.215317996   6.414123777   0.000000000
Al       0.000045384   5.134893369   0.000000000
Al      -4.441789549  10.278495308   0.000000000
Al      -2.244509377   9.006219630   0.000000000
Al      -6.660296255  14.120677505   0.000000000
Al      -4.451024923  12.834739663   0.000000000
Al       4.432856530   2.575431535   0.000000000
Al       6.665015220   1.286991825   0.000000000
Al       2.215434993   6.414181221   0.000000000
Al       4.474983248   5.143164421   0.000000000
Al       0.000152096  10.253848161   0.000000000
Al       2.244482260   9.006200593   0.000000000
Al      -2.217619488  14.123797011   0.000000000
Al      -0.000088482  12.831480189   0.000000000
Al       8.893900042   2.560951754   0.000000000
Al      11.122170768   1.287163840   0.000000000
Al       6.675319449   6.410555670   0.000000000
Al       8.893788311   5.140279022   0.000000000
Al       4.442122223  10.278621679   0.000000000
Al       6.761807080   9.038608791   0.000000000
Al       2.217963829  14.123925031   0.000000000
Al       4.451367896  12.834781484   0.000000000
Al      13.354765810   2.575525946   0.000000000
Al      15.556990102   1.255982858   0.000000000
Al      11.112265174   6.410533589   0.000000000
Al      13.312504958   5.143322392   0.000000000
Al      11.025785680   9.038689183   0.000000000
Al       6.660520638  14.120725624   0.000000000
Al       8.893884310  12.731894348   0.000000000



     Writing output data file 29al_planar_2x2_vcr.save/
     NEW-OLD atomic charge density approx. for the potential

     negative rho (up, down):  1.732E-06 0.000E+00
     extrapolated charge   92.85479, renormalised to   93.00000

     total cpu time spent up to now is     1830.1 secs

     Self-consistent Calculation

     iteration #  1     ecut=    80.00 Ry     beta= 0.40
     Davidson diagonalization with overlap
     ethr =  1.00E-06,  avg # of iterations =  8.0

     negative rho (up, down):  9.114E-07 0.000E+00

     total cpu time spent up to now is     1876.0 secs

     total energy              =    -140.94616731 Ry
     Harris-Foulkes estimate   =    -141.66679682 Ry
     estimated scf accuracy    <       0.00074227 Ry

     iteration #  2     ecut=    80.00 Ry     beta= 0.40
     Davidson diagonalization with overlap
     ethr =  7.98E-07,  avg # of iterations =  6.0

     negative rho (up, down):  8.177E-07 0.000E+00

     total cpu time spent up to now is     1909.7 secs

     total energy              =    -140.94622321 Ry
     Harris-Foulkes estimate   =    -140.94713178 Ry
     estimated scf accuracy    <       0.00661880 Ry

     iteration #  3     ecut=    80.00 Ry     beta= 0.40
     Davidson diagonalization with overlap
     c_bands:  1 eigenvalues not converged
     ethr =  7.98E-07,  avg # of iterations = 20.0

     negative rho (up, down):  5.753E-07 0.000E+00

     total cpu time spent up to now is     1941.3 secs

     total energy              =    -140.94656748 Ry
     Harris-Foulkes estimate   =    -140.94662936 Ry
     estimated scf accuracy    <       0.00027674 Ry

     iteration #  4     ecut=    80.00 Ry     beta= 0.40
     Davidson diagonalization with overlap
     ethr =  2.98E-07,  avg # of iterations =  1.0

     negative rho (up, down):  4.056E-07 0.000E+00

     total cpu time spent up to now is     1963.9 secs

     total energy              =    -140.94656719 Ry
     Harris-Foulkes estimate   =    -140.94659627 Ry
     estimated scf accuracy    <       0.00014997 Ry

     iteration #  5     ecut=    80.00 Ry     beta= 0.40
     Davidson diagonalization with overlap
     ethr =  1.61E-07,  avg # of iterations =  4.0

     negative rho (up, down):  2.076E-07 0.000E+00

     total cpu time spent up to now is     1987.9 secs

     total energy              =    -140.94655486 Ry
     Harris-Foulkes estimate   =    -140.94660521 Ry
     estimated scf accuracy    <       0.00030299 Ry

     iteration #  6     ecut=    80.00 Ry     beta= 0.40
     Davidson diagonalization with overlap
     ethr =  1.61E-07,  avg # of iterations =  1.0

     negative rho (up, down):  6.889E-08 0.000E+00

     total cpu time spent up to now is     2009.4 secs

     total energy              =    -140.94657708 Ry
     Harris-Foulkes estimate   =    -140.94658514 Ry
     estimated scf accuracy    <       0.00004067 Ry

     iteration #  7     ecut=    80.00 Ry     beta= 0.40
     Davidson diagonalization with overlap
     ethr =  4.37E-08,  avg # of iterations =  5.0

     negative rho (up, down):  4.634E-08 0.000E+00

     total cpu time spent up to now is     2034.3 secs

     total energy              =    -140.94658021 Ry
     Harris-Foulkes estimate   =    -140.94658678 Ry
     estimated scf accuracy    <       0.00004284 Ry

     iteration #  8     ecut=    80.00 Ry     beta= 0.40
     Davidson diagonalization with overlap
     ethr =  4.37E-08,  avg # of iterations =  1.0

     negative rho (up, down):  2.120E-08 0.000E+00

     total cpu time spent up to now is     2055.9 secs

     total energy              =    -140.94658289 Ry
     Harris-Foulkes estimate   =    -140.94658373 Ry
     estimated scf accuracy    <       0.00000372 Ry

     iteration #  9     ecut=    80.00 Ry     beta= 0.40
     Davidson diagonalization with overlap
     ethr =  4.00E-09,  avg # of iterations =  9.0

     total cpu time spent up to now is     2083.6 secs

     total energy              =    -140.94657761 Ry
     Harris-Foulkes estimate   =    -140.94657818 Ry
     estimated scf accuracy    <       0.00000393 Ry

     iteration # 10     ecut=    80.00 Ry     beta= 0.40
     Davidson diagonalization with overlap
     ethr =  4.00E-09,  avg # of iterations =  3.0

     total cpu time spent up to now is     2104.4 secs

     total energy              =    -140.94657719 Ry
     Harris-Foulkes estimate   =    -140.94657763 Ry
     estimated scf accuracy    <       0.00000290 Ry

     iteration # 11     ecut=    80.00 Ry     beta= 0.40
     Davidson diagonalization with overlap
     ethr =  3.11E-09,  avg # of iterations =  1.0

     total cpu time spent up to now is     2124.4 secs

     total energy              =    -140.94657714 Ry
     Harris-Foulkes estimate   =    -140.94657732 Ry
     estimated scf accuracy    <       0.00000103 Ry

     iteration # 12     ecut=    80.00 Ry     beta= 0.40
     Davidson diagonalization with overlap
     ethr =  1.11E-09,  avg # of iterations =  4.0

     total cpu time spent up to now is     2147.3 secs

     End of self-consistent calculation

          k = 0.0000 0.0000 0.0000 (448403 PWs)   bands (ev):

    -9.9603  -9.4536  -9.4515  -9.4513  -9.4122  -9.4120  -9.1306  -8.4074
    -8.4036  -8.4033  -8.3590  -8.3585  -8.3194  -8.2199  -8.2197  -7.5780
    -6.9347  -6.9343  -6.8265  -6.4778  -6.4775  -6.4453  -6.3860  -6.3857
    -5.5298  -4.8190  -4.8066  -4.8060  -4.7366  -4.7363  -4.4640  -4.4575
    -4.4473  -4.4472  -4.1567  -4.1564  -3.9808  -3.4726  -3.4725  -3.4719
    -3.4510  -3.4508  -3.3784  -3.3413  -3.2601  -3.2600  -3.2135  -2.9666
    -2.9431  -2.9430  -2.9174  -2.4920  -2.4913  -2.4507  -2.4416  -2.4411

     the Fermi energy is    -3.0893 ev

!    total energy              =    -140.94657685 Ry
     Harris-Foulkes estimate   =    -140.94657715 Ry
     estimated scf accuracy    <       0.00000038 Ry

     The total energy is the sum of the following terms:

     one-electron contribution =    -503.27357136 Ry
     hartree contribution      =     260.37140976 Ry
     xc contribution           =     -61.31674769 Ry
     ewald contribution        =     163.34870999 Ry
     smearing contrib. (-TS)   =      -0.07637754 Ry

     convergence has been achieved in  12 iterations

     Forces acting on atoms (cartesian axes, Ry/au):

     atom    1 type  1   force =    -0.00001348   -0.00261859    0.00000000
     atom    2 type  1   force =    -0.00166206    0.00168694    0.00000000
     atom    3 type  1   force =    -0.00226713    0.00132164    0.00000000
     atom    4 type  1   force =     0.00000945   -0.00000285    0.00000000
     atom    5 type  1   force =    -0.00895200   -0.00384170    0.00000000
     atom    6 type  1   force =     0.00080051   -0.00233481    0.00000000
     atom    7 type  1   force =    -0.00772841   -0.00565892    0.00000000
     atom    8 type  1   force =     0.00179428    0.00104539    0.00000000
     atom    9 type  1   force =    -0.00212952    0.00132690    0.00000000
     atom   10 type  1   force =    -0.00178376    0.00096785    0.00000000
     atom   11 type  1   force =     0.00228275    0.00129921    0.00000000
     atom   12 type  1   force =    -0.00241517    0.00046553    0.00000000
     atom   13 type  1   force =    -0.00002223   -0.00246650    0.00000000
     atom   14 type  1   force =    -0.00071374   -0.00231010    0.00000000
     atom   15 type  1   force =    -0.00076711   -0.00028598    0.00000000
     atom   16 type  1   force =     0.00002573   -0.00217389    0.00000000
     atom   17 type  1   force =    -0.00009896    0.00092434    0.00000000
     atom   18 type  1   force =     0.00191883    0.00093653    0.00000000
     atom   19 type  1   force =     0.00112274    0.00952313    0.00000000
     atom   20 type  1   force =     0.00000335   -0.00215318    0.00000000
     atom   21 type  1   force =     0.00884275   -0.00387438    0.00000000
     atom   22 type  1   force =     0.01293401    0.00755440    0.00000000
     atom   23 type  1   force =     0.00074878   -0.00030579    0.00000000
     atom   24 type  1   force =    -0.00181459    0.00104754    0.00000000
     atom   25 type  1   force =     0.00205568    0.00129942    0.00000000
     atom   26 type  1   force =     0.00171604    0.00164645    0.00000000
     atom   27 type  1   force =    -0.00115385    0.00955372    0.00000000
     atom   28 type  1   force =     0.00241424    0.00044905    0.00000000
     atom   29 type  1   force =    -0.01289792    0.00756236    0.00000000
     atom   30 type  1   force =     0.00775021   -0.00562260    0.00000000
     atom   31 type  1   force =     0.00000056   -0.01496112    0.00000000

     Total force =     0.036483     Total SCF correction =     0.000457


     Computing stress (Cartesian axis) and pressure

          total   stress  (Ry/bohr**3)                   (kbar)     P=   -0.70
  -0.00000714  -0.00000002   0.00000000         -1.05     -0.00      0.00
  -0.00000002  -0.00000722   0.00000000         -0.00     -1.06      0.00
   0.00000000   0.00000000   0.00000001          0.00      0.00      0.00


     number of scf cycles    =   6
     number of bfgs steps    =   5

     enthalpy old            =    -140.9429238106 Ry
     enthalpy new            =    -140.9465768526 Ry

     CASE: enthalpy_new < enthalpy_old

     new trust radius        =       0.1148681172 bohr
     new conv_thr            =       0.0000010000 Ry

     new unit-cell volume =  36895.00564 a.u.^3 (  5467.27569 Ang^3 )
     density =      0.28229 g/cm^3

CELL_PARAMETERS (alat= 33.68096681)
   0.996809788   0.000006874   0.000000000
  -0.498398941   0.863287783   0.000000000
   0.000000000   0.000000000   1.122132950

ATOMIC_POSITIONS (angstrom)
Al       0.000042340   2.577355688   0.000000000
Al       2.230738079   1.240662618   0.000000000
Al      -2.209454493   6.404813898   0.000000000
Al       0.000052755   5.128858618   0.000000000
Al      -4.437853643  10.269189543   0.000000000
Al      -2.252330270   9.005046787   0.000000000
Al      -6.650695097  14.101519727   0.000000000
Al      -4.447189132  12.818844810   0.000000000
Al       4.419432863   2.577127763   0.000000000
Al       6.653754901   1.287491682   0.000000000
Al       2.209635817   6.404858409   0.000000000
Al       4.483084030   5.141476252   0.000000000
Al       0.000183305  10.232497546   0.000000000
Al       2.252301201   9.005027310   0.000000000
Al      -2.212380755  14.108569502   0.000000000
Al      -0.000143175  12.812548429   0.000000000
Al       8.883404439   2.554942349   0.000000000
Al      11.112395754   1.287717745   0.000000000
Al       6.670478996   6.402979961   0.000000000
Al       8.883295356   5.136061405   0.000000000
Al       4.438225512  10.269310672   0.000000000
Al       6.806424024   9.058264311   0.000000000
Al       2.212807802  14.108713917   0.000000000
Al       4.447579712  12.818890415   0.000000000
Al      13.347204219   2.577215443   0.000000000
Al      15.535696570   1.240890046   0.000000000
Al      11.096125955   6.402970391   0.000000000
Al      13.283361928   5.141667103   0.000000000
Al      10.960195292   9.058355706   0.000000000
Al       6.650997073  14.101577891   0.000000000
Al       8.883403346  12.656275973   0.000000000



     Writing output data file 29al_planar_2x2_vcr.save/
     NEW-OLD atomic charge density approx. for the potential

     negative rho (up, down):  2.658E-06 0.000E+00
     extrapolated charge   92.78097, renormalised to   93.00000

     total cpu time spent up to now is     2221.9 secs

     Self-consistent Calculation

     iteration #  1     ecut=    80.00 Ry     beta= 0.40
     Davidson diagonalization with overlap
     ethr =  1.00E-06,  avg # of iterations =  9.0

     negative rho (up, down):  1.422E-06 0.000E+00

     total cpu time spent up to now is     2269.2 secs

     total energy              =    -140.95056961 Ry
     Harris-Foulkes estimate   =    -142.03977245 Ry
     estimated scf accuracy    <       0.00209505 Ry

     iteration #  2     ecut=    80.00 Ry     beta= 0.40
     Davidson diagonalization with overlap
     ethr =  2.25E-06,  avg # of iterations =  6.0

     negative rho (up, down):  1.286E-06 0.000E+00

     total cpu time spent up to now is     2304.1 secs

     total energy              =    -140.95028874 Ry
     Harris-Foulkes estimate   =    -140.95400669 Ry
     estimated scf accuracy    <       0.02887351 Ry

     iteration #  3     ecut=    80.00 Ry     beta= 0.40
     Davidson diagonalization with overlap
     ethr =  2.25E-06,  avg # of iterations =  4.0

     negative rho (up, down):  9.308E-07 0.000E+00

     total cpu time spent up to now is     2331.9 secs

     total energy              =    -140.95193471 Ry
     Harris-Foulkes estimate   =    -140.95206206 Ry
     estimated scf accuracy    <       0.00057872 Ry

     iteration #  4     ecut=    80.00 Ry     beta= 0.40
     Davidson diagonalization with overlap
     ethr =  6.22E-07,  avg # of iterations =  3.0

     negative rho (up, down):  6.850E-07 0.000E+00

     total cpu time spent up to now is     2353.3 secs

     total energy              =    -140.95193379 Ry
     Harris-Foulkes estimate   =    -140.95199916 Ry
     estimated scf accuracy    <       0.00036020 Ry

     iteration #  5     ecut=    80.00 Ry     beta= 0.40
     Davidson diagonalization with overlap
     ethr =  3.87E-07,  avg # of iterations =  4.0

     negative rho (up, down):  4.005E-07 0.000E+00

     total cpu time spent up to now is     2376.8 secs

     total energy              =    -140.95191591 Ry
     Harris-Foulkes estimate   =    -140.95200198 Ry
     estimated scf accuracy    <       0.00050071 Ry

     iteration #  6     ecut=    80.00 Ry     beta= 0.40
     Davidson diagonalization with overlap
     ethr =  3.87E-07,  avg # of iterations =  3.0

     negative rho (up, down):  8.847E-08 0.000E+00

     total cpu time spent up to now is     2400.1 secs

     total energy              =    -140.95195143 Ry
     Harris-Foulkes estimate   =    -140.95197042 Ry
     estimated scf accuracy    <       0.00009682 Ry

     iteration #  7     ecut=    80.00 Ry     beta= 0.40
     Davidson diagonalization with overlap
     ethr =  1.04E-07,  avg # of iterations =  3.0

     negative rho (up, down):  6.415E-08 0.000E+00

     total cpu time spent up to now is     2420.4 secs

     total energy              =    -140.95195989 Ry
     Harris-Foulkes estimate   =    -140.95197001 Ry
     estimated scf accuracy    <       0.00006222 Ry

     iteration #  8     ecut=    80.00 Ry     beta= 0.40
     Davidson diagonalization with overlap
     ethr =  6.69E-08,  avg # of iterations =  1.0

     negative rho (up, down):  3.644E-08 0.000E+00

     total cpu time spent up to now is     2440.1 secs

     total energy              =    -140.95196532 Ry
     Harris-Foulkes estimate   =    -140.95196677 Ry
     estimated scf accuracy    <       0.00000630 Ry

     iteration #  9     ecut=    80.00 Ry     beta= 0.40
     Davidson diagonalization with overlap
     ethr =  6.77E-09,  avg # of iterations =  5.0

     negative rho (up, down):  2.087E-08 0.000E+00

     total cpu time spent up to now is     2467.6 secs

     total energy              =    -140.95196585 Ry
     Harris-Foulkes estimate   =    -140.95196762 Ry
     estimated scf accuracy    <       0.00001177 Ry

     iteration # 10     ecut=    80.00 Ry     beta= 0.40
     Davidson diagonalization with overlap
     ethr =  6.77E-09,  avg # of iterations =  3.0

     total cpu time spent up to now is     2488.4 secs

     total energy              =    -140.95196579 Ry
     Harris-Foulkes estimate   =    -140.95196699 Ry
     estimated scf accuracy    <       0.00000807 Ry

     iteration # 11     ecut=    80.00 Ry     beta= 0.40
     Davidson diagonalization with overlap
     ethr =  6.77E-09,  avg # of iterations =  2.0

     total cpu time spent up to now is     2508.4 secs

     End of self-consistent calculation

          k = 0.0000 0.0000 0.0000 (448403 PWs)   bands (ev):

    -9.9645  -9.4612  -9.4610  -9.4566  -9.4051  -9.4048  -9.1256  -8.4186
    -8.4027  -8.4026  -8.3513  -8.3510  -8.3263  -8.1932  -8.1930  -7.5793
    -6.9366  -6.9360  -6.8294  -6.4761  -6.4758  -6.4250  -6.3897  -6.3893
    -5.5677  -4.8085  -4.7918  -4.7911  -4.7297  -4.7295  -4.4567  -4.4509
    -4.4488  -4.4487  -4.1759  -4.1754  -3.9822  -3.4774  -3.4772  -3.4722
    -3.4438  -3.4436  -3.4227  -3.3633  -3.2516  -3.2516  -3.2118  -2.9751
    -2.9301  -2.9299  -2.8855  -2.4776  -2.4767  -2.4577  -2.4386  -2.4383

     the Fermi energy is    -3.0872 ev

!    total energy              =    -140.95196554 Ry
     Harris-Foulkes estimate   =    -140.95196626 Ry
     estimated scf accuracy    <       0.00000093 Ry

     The total energy is the sum of the following terms:

     one-electron contribution =    -504.03494843 Ry
     hartree contribution      =     260.74614896 Ry
     xc contribution           =     -61.30912374 Ry
     ewald contribution        =     163.71840433 Ry
     smearing contrib. (-TS)   =      -0.07244666 Ry

     convergence has been achieved in  11 iterations

     Forces acting on atoms (cartesian axes, Ry/au):

     atom    1 type  1   force =    -0.00002030   -0.00473370    0.00000000
     atom    2 type  1   force =    -0.00312441    0.00477393    0.00000000
     atom    3 type  1   force =    -0.00415956    0.00236789    0.00000000
     atom    4 type  1   force =     0.00001294   -0.00002798    0.00000000
     atom    5 type  1   force =    -0.01418454   -0.00617519    0.00000000
     atom    6 type  1   force =     0.00284374   -0.00514977    0.00000000
     atom    7 type  1   force =    -0.01237752   -0.00895307    0.00000000
     atom    8 type  1   force =     0.00276171    0.00159452    0.00000000
     atom    9 type  1   force =    -0.00189183    0.00121787    0.00000000
     atom   10 type  1   force =    -0.00260740    0.00138379    0.00000000
     atom   11 type  1   force =     0.00414482    0.00236144    0.00000000
     atom   12 type  1   force =    -0.00585723    0.00014544    0.00000000
     atom   13 type  1   force =    -0.00003516   -0.00223211    0.00000000
     atom   14 type  1   force =    -0.00272146   -0.00513098    0.00000000
     atom   15 type  1   force =    -0.00150820   -0.00062204    0.00000000
     atom   16 type  1   force =     0.00007428   -0.00311229    0.00000000
     atom   17 type  1   force =    -0.00010810    0.00181343    0.00000000
     atom   18 type  1   force =     0.00277603    0.00134006    0.00000000
     atom   19 type  1   force =     0.00170398    0.01517472    0.00000000
     atom   20 type  1   force =     0.00000304   -0.00329980    0.00000000
     atom   21 type  1   force =     0.01407763   -0.00621065    0.00000000
     atom   22 type  1   force =     0.01335880    0.00783048    0.00000000
     atom   23 type  1   force =     0.00144695   -0.00065772    0.00000000
     atom   24 type  1   force =    -0.00277374    0.00160740    0.00000000
     atom   25 type  1   force =     0.00180185    0.00120377    0.00000000
     atom   26 type  1   force =     0.00317216    0.00473298    0.00000000
     atom   27 type  1   force =    -0.00174492    0.01520076    0.00000000
     atom   28 type  1   force =     0.00589412    0.00011135    0.00000000
     atom   29 type  1   force =    -0.01333682    0.00783097    0.00000000
     atom   30 type  1   force =     0.01238777   -0.00891964    0.00000000
     atom   31 type  1   force =    -0.00000862   -0.01546586    0.00000000

     Total force =     0.049809     Total SCF correction =     0.000743


     Computing stress (Cartesian axis) and pressure

          total   stress  (Ry/bohr**3)                   (kbar)     P=   -0.77
  -0.00000781  -0.00000003   0.00000000         -1.15     -0.00      0.00
  -0.00000003  -0.00000792   0.00000000         -0.00     -1.17      0.00
   0.00000000   0.00000000  -0.00000000          0.00      0.00     -0.00


     number of scf cycles    =   7
     number of bfgs steps    =   6

     enthalpy old            =    -140.9465768526 Ry
     enthalpy new            =    -140.9519655426 Ry

     CASE: enthalpy_new < enthalpy_old

     new trust radius        =       0.1721002762 bohr
     new conv_thr            =       0.0000010000 Ry

     new unit-cell volume =  36764.51772 a.u.^3 (  5447.93938 Ang^3 )
     density =      0.28330 g/cm^3

CELL_PARAMETERS (alat= 33.68096681)
   0.995038438   0.000009427   0.000000000
  -0.497511055   0.861764653   0.000000000
   0.000000000   0.000000000   1.122132950

ATOMIC_POSITIONS (angstrom)
Al       0.000073155   2.577735633   0.000000000
Al       2.230746510   1.218961503   0.000000000
Al      -2.201193161   6.391114399   0.000000000
Al       0.000063825   5.119775110   0.000000000
Al      -4.433319627  10.254686759   0.000000000
Al      -2.263407092   9.002425135   0.000000000
Al      -6.637430803  14.071799017   0.000000000
Al      -4.441263341  12.795044480   0.000000000
Al       4.399525476   2.579521177   0.000000000
Al       6.636576762   1.288369186   0.000000000
Al       2.201451944   6.391152932   0.000000000
Al       4.494184580   5.138810554   0.000000000
Al       0.000227533  10.200699695   0.000000000
Al       2.263379368   9.002396676   0.000000000
Al      -2.204697395  14.085596306   0.000000000
Al      -0.000203782  12.783835185   0.000000000
Al       8.867645968   2.546143034   0.000000000
Al      11.097955918   1.288677011   0.000000000
Al       6.663442099   6.393062307   0.000000000
Al       8.867526676   5.129540857   0.000000000
Al       4.433776707  10.254804276   0.000000000
Al       6.873092567   9.087581235   0.000000000
Al       2.205228138  14.085760433   0.000000000
[...]
Al       1.351207700   2.993926304   0.000000000
Al       5.474840370   0.143999514   0.000000000
Al       1.871719921   5.682971676   0.000000000
Al       3.885317609   4.202919847   0.000000000
Al      -0.346673767   7.188211674   0.000000000
Al       2.364758207   8.179631893   0.000000000
Al       0.122514123  12.150730437   0.000000000
Al      -0.111991282   9.669456127   0.000000000
Al       7.853417384   1.142320177   0.000000000
Al      10.082796413   2.142638041   0.000000000
Al       4.676114481   6.743095276   0.000000000
Al       5.995319347   2.833025600   0.000000000
Al       4.865773972   9.371724118   0.000000000
Al       7.203008309   8.202199004   0.000000000
Al       2.625264657  13.179603591   0.000000000
Al       2.528287919  10.682525362   0.000000000
Al      12.094331654   3.503653118   0.000000000
Al      12.544294427   1.004967436   0.000000000
Al       7.050343134   5.414261195   0.000000000
Al       9.632951274   4.641402054   0.000000000
Al       9.601284689   7.205534818   0.000000000
Al       5.005007805  11.952799485   0.000000000
Al       7.403429903  10.956263175   0.000000000
End final coordinates



     Writing output data file 29al_planar_2x2_vcr.save/

     A final scf calculation at the relaxed structure.
     The G-vectors are recalculated for the final unit cell
     Results may differ from those at the preceding step.
 
     Parallelization info
     --------------------
     sticks:   dense  smooth     PW     G-vecs:    dense   smooth      PW
     Min        2262    2262    564               324587   324587   40562
     Max        2264    2264    565               324589   324589   40567
     Sum       18103   18103   4519              2596705  2596705  324517
 


     bravais-lattice index     =            4
     lattice parameter (alat)  =      33.6810  a.u.
     unit-cell volume          =   26861.2350 (a.u.)^3
     number of atoms/cell      =           31
     number of atomic types    =            1
     number of electrons       =        93.00
     number of Kohn-Sham states=           56
     kinetic-energy cutoff     =      80.0000  Ry
     charge density cutoff     =     320.0000  Ry
     convergence threshold     =      1.0E-08
     mixing beta               =       0.4000
     number of iterations used =            8  plain     mixing
     Exchange-correlation      = PBE ( 1  4  3  4 0 0)

     celldm(1)=  33.680967  celldm(2)=   0.000000  celldm(3)=   1.122133
     celldm(4)=   0.000000  celldm(5)=   0.000000  celldm(6)=   0.000000

     crystal axes: (cart. coord. in units of alat)
               a(1) = (   0.832087  -0.010131   0.000000 )  
               a(2) = (  -0.424773   0.758110   0.000000 )  
               a(3) = (   0.000000   0.000000   1.122133 )  

     reciprocal axes: (cart. coord. in units 2 pi/alat)
               b(1) = (  1.210052  0.677998  0.000000 )  
               b(2) = (  0.016171  1.328130  0.000000 )  
               b(3) = (  0.000000  0.000000  0.891160 )  


     PseudoPot. # 1 for Al read from file:
     ./Al.upf
     MD5 check sum: 4974d48a734c9d7d1eb6780a1419d19d
     Pseudo is Norm-conserving + core correction, Zval =  3.0
     Generated using ONCVPSP code by D. R. Hamann
     Using radial grid of 1876 points,  6 beta functions with: 
                l(1) =   0
                l(2) =   0
                l(3) =   1
                l(4) =   1
                l(5) =   2
                l(6) =   2

     atomic species   valence    mass     pseudopotential
        Al             3.00    29.98200     Al( 1.00)

      2 Sym. Ops. (no inversion) found



   Cartesian axes

     site n.     atom                  positions (alat units)
         1           Al  tau(   1) = (   0.0166386   0.0231556   0.0000000  )
         2           Al  tau(   2) = (   0.1941973   0.0911192   0.0000000  )
         3           Al  tau(   3) = (  -0.1598742   0.3455745   0.0000000  )
         4           Al  tau(   4) = (  -0.0284367   0.2628420   0.0000000  )
         5           Al  tau(   5) = (  -0.2855703   0.5592251   0.0000000  )
         6           Al  tau(   6) = (  -0.1544260   0.4856761   0.0000000  )
         7           Al  tau(   7) = (  -0.2749187   0.7067040   0.0000000  )
         8           Al  tau(   8) = (  -0.1452350   0.6261040   0.0000000  )
         9           Al  tau(   9) = (   0.0758117   0.1679792   0.0000000  )
        10           Al  tau(  10) = (   0.3071749   0.0080793   0.0000000  )
        11           Al  tau(  11) = (   0.1050159   0.3188525   0.0000000  )
        12           Al  tau(  12) = (   0.2179921   0.2358117   0.0000000  )
        13           Al  tau(  13) = (  -0.0194507   0.4033065   0.0000000  )
        14           Al  tau(  14) = (   0.1326787   0.4589317   0.0000000  )
        15           Al  tau(  15) = (   0.0068739   0.6817367   0.0000000  )
        16           Al  tau(  16) = (  -0.0062835   0.5425208   0.0000000  )
        17           Al  tau(  17) = (   0.4406289   0.0640918   0.0000000  )
        18           Al  tau(  18) = (   0.5657119   0.1202162   0.0000000  )
        19           Al  tau(  19) = (   0.2623611   0.3783325   0.0000000  )
        20           Al  tau(  20) = (   0.3363773   0.1589516   0.0000000  )
        21           Al  tau(  21) = (   0.2730023   0.5258160   0.0000000  )
        22           Al  tau(  22) = (   0.4041366   0.4601979   0.0000000  )
        23           Al  tau(  23) = (   0.1472948   0.7394634   0.0000000  )
        24           Al  tau(  24) = (   0.1418538   0.5993607   0.0000000  )
        25           Al  tau(  25) = (   0.6785724   0.1965782   0.0000000  )
        26           Al  tau(  26) = (   0.7038183   0.0563854   0.0000000  )
        27           Al  tau(  27) = (   0.3955711   0.3037760   0.0000000  )
        28           Al  tau(  28) = (   0.5404726   0.2604135   0.0000000  )
        29           Al  tau(  29) = (   0.5386959   0.4042784   0.0000000  )
        30           Al  tau(  30) = (   0.2808142   0.6706315   0.0000000  )
        31           Al  tau(  31) = (   0.4153816   0.6147192   0.0000000  )

     number of k points=     1  Methfessel-Paxton smearing, width (Ry)=  0.0500
                       cart. coord. in units 2pi/alat
        k(    1) = (   0.0000000   0.0000000   0.0000000), wk =   2.0000000

     Dense  grid:  2596705 G-vectors     FFT dimensions: ( 160, 180, 216)

     Estimated max dynamical RAM per process >     867.37 MB

     Estimated total dynamical RAM >       6.78 GB

     Initial potential from superposition of free atoms

     starting charge   92.92414, renormalised to   93.00000

     negative rho (up, down):  7.285E-05 0.000E+00
     Starting wfcs are  124 randomized atomic wfcs

     total cpu time spent up to now is    85433.2 secs

     Self-consistent Calculation

     iteration #  1     ecut=    80.00 Ry     beta= 0.40
     Davidson diagonalization with overlap
     c_bands:  3 eigenvalues not converged
     ethr =  1.00E-06,  avg # of iterations = 20.0

     negative rho (up, down):  1.139E-05 0.000E+00

     total cpu time spent up to now is    85495.7 secs

     total energy              =    -141.94851031 Ry
     Harris-Foulkes estimate   =    -142.38782787 Ry
     estimated scf accuracy    <       1.10843349 Ry

     iteration #  2     ecut=    80.00 Ry     beta= 0.40
     Davidson diagonalization with overlap
     ethr =  1.19E-03,  avg # of iterations =  5.0

     negative rho (up, down):  7.061E-06 0.000E+00

     total cpu time spent up to now is    85516.9 secs

     total energy              =    -141.89552873 Ry
     Harris-Foulkes estimate   =    -142.22010284 Ry
     estimated scf accuracy    <       0.99393524 Ry

     iteration #  3     ecut=    80.00 Ry     beta= 0.40
     Davidson diagonalization with overlap
     ethr =  1.07E-03,  avg # of iterations =  5.0

     negative rho (up, down):  2.931E-06 0.000E+00

     total cpu time spent up to now is    85539.8 secs

     total energy              =    -142.00634063 Ry
     Harris-Foulkes estimate   =    -142.14575502 Ry
     estimated scf accuracy    <       0.56074073 Ry

     iteration #  4     ecut=    80.00 Ry     beta= 0.40
     Davidson diagonalization with overlap
     ethr =  6.03E-04,  avg # of iterations =  4.0

     negative rho (up, down):  1.108E-06 0.000E+00

     total cpu time spent up to now is    85559.5 secs

     total energy              =    -142.06289229 Ry
     Harris-Foulkes estimate   =    -142.08571328 Ry
     estimated scf accuracy    <       0.07556053 Ry

     iteration #  5     ecut=    80.00 Ry     beta= 0.40
     Davidson diagonalization with overlap
     ethr =  8.12E-05,  avg # of iterations = 20.0

     negative rho (up, down):  7.050E-07 0.000E+00

     total cpu time spent up to now is    85586.7 secs

     total energy              =    -142.07318167 Ry
     Harris-Foulkes estimate   =    -142.07728181 Ry
     estimated scf accuracy    <       0.01522057 Ry

     iteration #  6     ecut=    80.00 Ry     beta= 0.40
     Davidson diagonalization with overlap
     ethr =  1.64E-05,  avg # of iterations =  5.0

     negative rho (up, down):  2.841E-07 0.000E+00

     total cpu time spent up to now is    85607.6 secs

     total energy              =    -142.07485555 Ry
     Harris-Foulkes estimate   =    -142.07714879 Ry
     estimated scf accuracy    <       0.01020369 Ry

     iteration #  7     ecut=    80.00 Ry     beta= 0.40
     Davidson diagonalization with overlap
     ethr =  1.10E-05,  avg # of iterations =  3.0

     negative rho (up, down):  1.015E-07 0.000E+00

     total cpu time spent up to now is    85625.5 secs

     total energy              =    -142.07577046 Ry
     Harris-Foulkes estimate   =    -142.07607938 Ry
     estimated scf accuracy    <       0.00118115 Ry

     iteration #  8     ecut=    80.00 Ry     beta= 0.40
     Davidson diagonalization with overlap
     ethr =  1.27E-06,  avg # of iterations =  9.0

     negative rho (up, down):  5.999E-08 0.000E+00

     total cpu time spent up to now is    85648.7 secs

     total energy              =    -142.07596008 Ry
     Harris-Foulkes estimate   =    -142.07605655 Ry
     estimated scf accuracy    <       0.00050100 Ry

     iteration #  9     ecut=    80.00 Ry     beta= 0.40
     Davidson diagonalization with overlap
     ethr =  5.39E-07,  avg # of iterations =  6.0

     negative rho (up, down):  2.637E-08 0.000E+00

     total cpu time spent up to now is    85664.9 secs

     total energy              =    -142.07597528 Ry
     Harris-Foulkes estimate   =    -142.07601412 Ry
     estimated scf accuracy    <       0.00017490 Ry

     iteration # 10     ecut=    80.00 Ry     beta= 0.40
     Davidson diagonalization with overlap
     ethr =  1.88E-07,  avg # of iterations =  5.0

     total cpu time spent up to now is    85684.7 secs

     total energy              =    -142.07599561 Ry
     Harris-Foulkes estimate   =    -142.07599932 Ry
     estimated scf accuracy    <       0.00001092 Ry

     iteration # 11     ecut=    80.00 Ry     beta= 0.40
     Davidson diagonalization with overlap
     ethr =  1.17E-08,  avg # of iterations =  7.0

     total cpu time spent up to now is    85712.0 secs

     total energy              =    -142.07599903 Ry
     Harris-Foulkes estimate   =    -142.07600262 Ry
     estimated scf accuracy    <       0.00001575 Ry

     iteration # 12     ecut=    80.00 Ry     beta= 0.40
     Davidson diagonalization with overlap
     ethr =  1.17E-08,  avg # of iterations =  4.0

     total cpu time spent up to now is    85731.2 secs

     total energy              =    -142.07600034 Ry
     Harris-Foulkes estimate   =    -142.07600105 Ry
     estimated scf accuracy    <       0.00000302 Ry

     iteration # 13     ecut=    80.00 Ry     beta= 0.40
     Davidson diagonalization with overlap
     ethr =  3.24E-09,  avg # of iterations =  5.0

     total cpu time spent up to now is    85751.2 secs

     total energy              =    -142.07600053 Ry
     Harris-Foulkes estimate   =    -142.07600082 Ry
     estimated scf accuracy    <       0.00000112 Ry

     iteration # 14     ecut=    80.00 Ry     beta= 0.40
     Davidson diagonalization with overlap
     ethr =  1.21E-09,  avg # of iterations =  4.0

     total cpu time spent up to now is    85769.5 secs

     total energy              =    -142.07600058 Ry
     Harris-Foulkes estimate   =    -142.07600064 Ry
     estimated scf accuracy    <       0.00000019 Ry

     iteration # 15     ecut=    80.00 Ry     beta= 0.40
     Davidson diagonalization with overlap
     ethr =  2.02E-10,  avg # of iterations =  4.0

     total cpu time spent up to now is    85789.8 secs

     total energy              =    -142.07600055 Ry
     Harris-Foulkes estimate   =    -142.07600059 Ry
     estimated scf accuracy    <       0.00000006 Ry

     iteration # 16     ecut=    80.00 Ry     beta= 0.40
     Davidson diagonalization with overlap
     ethr =  6.65E-11,  avg # of iterations =  4.0

     total cpu time spent up to now is    85810.8 secs

     total energy              =    -142.07600052 Ry
     Harris-Foulkes estimate   =    -142.07600054 Ry
     estimated scf accuracy    <       0.00000004 Ry

     iteration # 17     ecut=    80.00 Ry     beta= 0.40
     Davidson diagonalization with overlap
     ethr =  4.16E-11,  avg # of iterations =  4.0

     total cpu time spent up to now is    85827.1 secs

     End of self-consistent calculation

          k = 0.0000 0.0000 0.0000 (324517 PWs)   bands (ev):

   -11.5959 -10.9754 -10.8660 -10.7531 -10.6934 -10.5869 -10.1830  -9.2669
    -9.2359  -9.1643  -8.9080  -8.7141  -8.7053  -8.3331  -8.1918  -8.1543
    -8.0864  -7.9058  -7.7282  -6.2426  -6.2044  -6.1200  -6.0617  -5.8996
    -5.7350  -5.6664  -5.4648  -5.3223  -5.3007  -5.1905  -5.1585  -4.8528
    -4.4746  -4.4744  -4.1971  -4.1910  -4.1172  -4.0526  -4.0162  -3.9621
    -3.9536  -3.7344  -3.6934  -3.6681  -2.5566  -2.5446  -2.4641  -2.2952
    -2.1824  -2.1528  -1.9201  -1.8509  -1.7318  -1.7223  -1.6609  -1.5614

     the Fermi energy is    -2.4325 ev

!    total energy              =    -142.07600050 Ry
     Harris-Foulkes estimate   =    -142.07600052 Ry
     estimated scf accuracy    <          7.1E-09 Ry

     The total energy is the sum of the following terms:

     one-electron contribution =    -684.10359467 Ry
     hartree contribution      =     350.79702923 Ry
     xc contribution           =     -63.66163803 Ry
     ewald contribution        =     254.92210422 Ry
     smearing contrib. (-TS)   =      -0.02990126 Ry

     convergence has been achieved in  17 iterations

     Forces acting on atoms (cartesian axes, Ry/au):

     atom    1 type  1   force =     0.00000061   -0.00000931    0.00000000
     atom    2 type  1   force =    -0.00000746   -0.00000838    0.00000000
     atom    3 type  1   force =     0.00000958   -0.00000532    0.00000000
     atom    4 type  1   force =    -0.00000648   -0.00000596    0.00000000
     atom    5 type  1   force =    -0.00000484    0.00000513    0.00000000
     atom    6 type  1   force =    -0.00000359   -0.00000085    0.00000000
     atom    7 type  1   force =    -0.00000163    0.00001403    0.00000000
     atom    8 type  1   force =    -0.00001627   -0.00000320    0.00000000
     atom    9 type  1   force =     0.00000198   -0.00000169    0.00000000
     atom   10 type  1   force =     0.00000243    0.00000312    0.00000000
     atom   11 type  1   force =     0.00000369   -0.00000432    0.00000000
     atom   12 type  1   force =     0.00000479    0.00000993    0.00000000
     atom   13 type  1   force =    -0.00000687   -0.00000550    0.00000000
     atom   14 type  1   force =    -0.00000107    0.00000617    0.00000000
     atom   15 type  1   force =     0.00000915   -0.00000084    0.00000000
     atom   16 type  1   force =     0.00000342   -0.00000352    0.00000000
     atom   17 type  1   force =     0.00001228    0.00000873    0.00000000
     atom   18 type  1   force =     0.00000246    0.00000541    0.00000000
     atom   19 type  1   force =    -0.00001235   -0.00001041    0.00000000
     atom   20 type  1   force =     0.00000312    0.00001025    0.00000000
     atom   21 type  1   force =     0.00000008   -0.00000515    0.00000000
     atom   22 type  1   force =     0.00000679   -0.00000394    0.00000000
     atom   23 type  1   force =     0.00000604    0.00000499    0.00000000
     atom   24 type  1   force =     0.00000128    0.00000690    0.00000000
     atom   25 type  1   force =    -0.00000508    0.00000635    0.00000000
     atom   26 type  1   force =    -0.00000295    0.00000022    0.00000000
     atom   27 type  1   force =     0.00000075    0.00000545    0.00000000
     atom   28 type  1   force =    -0.00000307   -0.00001058    0.00000000
     atom   29 type  1   force =    -0.00000183   -0.00000550    0.00000000
     atom   30 type  1   force =     0.00001113   -0.00000201    0.00000000
     atom   31 type  1   force =    -0.00000611   -0.00000022    0.00000000

     Total force =     0.000051     Total SCF correction =     0.000086
     SCF correction compared to forces is large: reduce conv_thr to get better values


     Computing stress (Cartesian axis) and pressure

          total   stress  (Ry/bohr**3)                   (kbar)     P=    0.00
   0.00000004  -0.00000001   0.00000000          0.01     -0.00      0.00
  -0.00000001   0.00000004   0.00000000         -0.00      0.01      0.00
   0.00000000   0.00000000  -0.00000001          0.00      0.00     -0.00


     Writing output data file 29al_planar_2x2_vcr.save/
 
     init_run     :     39.37s CPU     45.47s WALL (       2 calls)
     electrons    :  56513.78s CPU  67045.99s WALL (     250 calls)
     update_pot   :   4062.68s CPU   4123.02s WALL (     248 calls)
     forces       :   3457.38s CPU   3582.91s WALL (     250 calls)
     stress       :  10592.08s CPU  10886.49s WALL (     250 calls)

     Called by init_run:
     wfcinit      :     19.90s CPU     25.32s WALL (       2 calls)
     potinit      :      7.23s CPU      7.59s WALL (       2 calls)
     hinit0       :      8.69s CPU      8.86s WALL (       2 calls)

     Called by electrons:
     c_bands      :  46914.68s CPU  55338.36s WALL (    2275 calls)
     sum_band     :   6655.84s CPU   8085.40s WALL (    2275 calls)
     v_of_rho     :   2560.40s CPU   3026.76s WALL (    2464 calls)
     mix_rho      :    510.68s CPU    699.94s WALL (    2275 calls)

     Called by c_bands:
     init_us_2    :    923.26s CPU    927.76s WALL (    4552 calls)
     cegterg      :  40519.94s CPU  48931.41s WALL (    2276 calls)

     Called by sum_band:

     Called by *egterg:
     h_psi        :  36352.92s CPU  44517.31s WALL (   14596 calls)
     g_psi        :    116.86s CPU    120.91s WALL (   12318 calls)
     cdiaghg      :    112.60s CPU    113.94s WALL (   14284 calls)

     Called by h_psi:
     h_psi:pot    :  36266.26s CPU  44296.09s WALL (   14596 calls)
     h_psi:calbec :   4211.64s CPU   4225.56s WALL (   14596 calls)
     vloc_psi     :  27296.33s CPU  35303.36s WALL (   14596 calls)
     add_vuspsi   :   4758.11s CPU   4767.05s WALL (   14596 calls)

     General routines
     calbec       :   4900.93s CPU   4916.31s WALL (   15846 calls)
     fft          :   2437.03s CPU   2816.98s WALL (   31199 calls)
     ffts         :    157.71s CPU    184.67s WALL (    2275 calls)
     fftw         :  28458.52s CPU  37538.00s WALL (  882310 calls)
 
     Parallel routines
     fft_scatt_xy :   5266.47s CPU   7172.71s WALL (  915784 calls)
     fft_scatt_yz :  10735.92s CPU  12645.21s WALL (  915784 calls)
 
     PWSCF        :    20h45m CPU       45h23m WALL

      51h
 
   This run was terminated on:   9: 6:59  27Nov2020            

=------------------------------------------------------------------------------=
   JOB DONE.
=------------------------------------------------------------------------------=
