
     Program PWSCF v.6.3MaX starts on 25Nov2020 at 17:48:43 

     This program is part of the open-source Quantum ESPRESSO suite
     for quantum simulation of materials; please cite
         "P. Giannozzi et al., J. Phys.:Condens. Matter 21 395502 (2009);
         "P. Giannozzi et al., J. Phys.:Condens. Matter 29 465901 (2017);
          URL http://www.quantum-espresso.org", 
     in publications or presentations arising from this work. More details at
     http://www.quantum-espresso.org/quote

     Parallel version (MPI), running on     8 processors

     MPI processes distributed on     2 nodes
     R & G space division:  proc/nbgrp/npool/nimage =       8
     Waiting for input...
     Reading input from standard input

     Current dimensions of program PWSCF are:
     Max number of different atomic species (ntypx) = 10
     Max number of k-points (npk) =  40000
     Max angular momentum in pseudopotentials (lmaxx) =  3

     Subspace diagonalization in iterative solution of the eigenvalue problem:
     a serial algorithm will be used

 
     Parallelization info
     --------------------
     sticks:   dense  smooth     PW     G-vecs:    dense   smooth      PW
     Min        1758    1758    438               252392   252392   31546
     Max        1759    1759    439               252397   252397   31551
     Sum       14071   14071   3505              2019149  2019149  252395
 


     bravais-lattice index     =            4
     lattice parameter (alat)  =      25.2607  a.u.
     unit-cell volume          =   20885.8003 (a.u.)^3
     number of atoms/cell      =           17
     number of atomic types    =            1
     number of electrons       =        51.00
     number of Kohn-Sham states=           31
     kinetic-energy cutoff     =      80.0000  Ry
     charge density cutoff     =     320.0000  Ry
     convergence threshold     =      1.0E-06
     mixing beta               =       0.4000
     number of iterations used =            8  plain     mixing
     Exchange-correlation      = PBE ( 1  4  3  4 0 0)
     nstep                     =          300


     celldm(1)=  25.260725  celldm(2)=   0.000000  celldm(3)=   1.496177
     celldm(4)=   0.000000  celldm(5)=   0.000000  celldm(6)=   0.000000

     crystal axes: (cart. coord. in units of alat)
               a(1) = (   1.000000   0.000000   0.000000 )  
               a(2) = (  -0.500000   0.866025   0.000000 )  
               a(3) = (   0.000000   0.000000   1.496177 )  

     reciprocal axes: (cart. coord. in units 2 pi/alat)
               b(1) = (  1.000000  0.577350  0.000000 )  
               b(2) = (  0.000000  1.154701  0.000000 )  
               b(3) = (  0.000000  0.000000  0.668370 )  


     PseudoPot. # 1 for Al read from file:
     ./Al.upf
     MD5 check sum: 4974d48a734c9d7d1eb6780a1419d19d
     Pseudo is Norm-conserving + core correction, Zval =  3.0
     Generated using ONCVPSP code by D. R. Hamann
     Using radial grid of 1876 points,  6 beta functions with: 
                l(1) =   0
                l(2) =   0
                l(3) =   1
                l(4) =   1
                l(5) =   2
                l(6) =   2

     atomic species   valence    mass     pseudopotential
        Al             3.00    29.98200     Al( 1.00)

      2 Sym. Ops. (no inversion) found



   Cartesian axes

     site n.     atom                  positions (alat units)
         1           Al  tau(   1) = (   0.0000000   0.1924524   0.0000000  )
         2           Al  tau(   2) = (   0.1666687   0.0962261   0.0000000  )
         3           Al  tau(   3) = (   0.3333348   0.1924537   0.0000000  )
         4           Al  tau(   4) = (   0.5000036   0.0962275   0.0000000  )
         5           Al  tau(   5) = (  -0.1666663   0.4811295   0.0000000  )
         6           Al  tau(   6) = (   0.0000024   0.3849033   0.0000000  )
         7           Al  tau(   7) = (   0.1666686   0.4811309   0.0000000  )
         8           Al  tau(   8) = (   0.3333373   0.3849047   0.0000000  )
         9           Al  tau(   9) = (  -0.3333326   0.7698067   0.0000000  )
        10           Al  tau(  10) = (  -0.1666639   0.6735805   0.0000000  )
        11           Al  tau(  11) = (   0.0000023   0.7698081   0.0000000  )
        12           Al  tau(  12) = (   0.1666710   0.6735818   0.0000000  )
        13           Al  tau(  13) = (   0.6666697   0.1924551   0.0000000  )
        14           Al  tau(  14) = (   0.8333384   0.0962289   0.0000000  )
        15           Al  tau(  15) = (   0.6666722   0.3849060   0.0000000  )
        16           Al  tau(  16) = (   0.3333372   0.7698094   0.0000000  )
        17           Al  tau(  17) = (   0.5000059   0.6735832   0.0000000  )

     number of k points=     1  Methfessel-Paxton smearing, width (Ry)=  0.0500
                       cart. coord. in units 2pi/alat
        k(    1) = (   0.0000000   0.0000000   0.0000000), wk =   2.0000000

     Dense  grid:  2019149 G-vectors     FFT dimensions: ( 144, 144, 216)

     Estimated max dynamical RAM per process >     437.36 MB

     Estimated total dynamical RAM >       3.42 GB

     Initial potential from superposition of free atoms

     starting charge   50.95840, renormalised to   51.00000

     negative rho (up, down):  5.196E-05 0.000E+00
     Starting wfcs are   68 randomized atomic wfcs

     total cpu time spent up to now is       11.5 secs

     Self-consistent Calculation

     iteration #  1     ecut=    80.00 Ry     beta= 0.40
     Davidson diagonalization with overlap
     ethr =  1.00E-02,  avg # of iterations =  2.0

     total cpu time spent up to now is       19.0 secs

     total energy              =     -77.03436422 Ry
     Harris-Foulkes estimate   =     -77.31744535 Ry
     estimated scf accuracy    <       0.79318020 Ry

     iteration #  2     ecut=    80.00 Ry     beta= 0.40
     Davidson diagonalization with overlap
     ethr =  1.56E-03,  avg # of iterations =  4.0

     total cpu time spent up to now is       26.1 secs

     total energy              =     -77.00134747 Ry
     Harris-Foulkes estimate   =     -77.25606966 Ry
     estimated scf accuracy    <       0.83165640 Ry

     iteration #  3     ecut=    80.00 Ry     beta= 0.40
     Davidson diagonalization with overlap
     ethr =  1.56E-03,  avg # of iterations =  3.0

     total cpu time spent up to now is       32.5 secs

     total energy              =     -77.12796960 Ry
     Harris-Foulkes estimate   =     -77.18809646 Ry
     estimated scf accuracy    <       0.27826469 Ry

     iteration #  4     ecut=    80.00 Ry     beta= 0.40
     Davidson diagonalization with overlap
     ethr =  5.46E-04,  avg # of iterations =  2.0

     total cpu time spent up to now is       38.6 secs

     total energy              =     -77.14938654 Ry
     Harris-Foulkes estimate   =     -77.16583442 Ry
     estimated scf accuracy    <       0.07046960 Ry

     iteration #  5     ecut=    80.00 Ry     beta= 0.40
     Davidson diagonalization with overlap
     ethr =  1.38E-04,  avg # of iterations =  3.0

     total cpu time spent up to now is       44.9 secs

     total energy              =     -77.15916738 Ry
     Harris-Foulkes estimate   =     -77.16229022 Ry
     estimated scf accuracy    <       0.01753175 Ry

     iteration #  6     ecut=    80.00 Ry     beta= 0.40
     Davidson diagonalization with overlap
     ethr =  3.44E-05,  avg # of iterations =  3.0

     total cpu time spent up to now is       51.3 secs

     total energy              =     -77.16163817 Ry
     Harris-Foulkes estimate   =     -77.16193276 Ry
     estimated scf accuracy    <       0.00211340 Ry

     iteration #  7     ecut=    80.00 Ry     beta= 0.40
     Davidson diagonalization with overlap
     ethr =  4.14E-06,  avg # of iterations =  6.0

     total cpu time spent up to now is       59.0 secs

     total energy              =     -77.16190574 Ry
     Harris-Foulkes estimate   =     -77.16232883 Ry
     estimated scf accuracy    <       0.00250898 Ry

     iteration #  8     ecut=    80.00 Ry     beta= 0.40
     Davidson diagonalization with overlap
     ethr =  4.14E-06,  avg # of iterations =  2.0

     total cpu time spent up to now is       65.0 secs

     total energy              =     -77.16203502 Ry
     Harris-Foulkes estimate   =     -77.16219474 Ry
     estimated scf accuracy    <       0.00102001 Ry

     iteration #  9     ecut=    80.00 Ry     beta= 0.40
     Davidson diagonalization with overlap
     ethr =  2.00E-06,  avg # of iterations =  3.0

     total cpu time spent up to now is       71.1 secs

     total energy              =     -77.16208195 Ry
     Harris-Foulkes estimate   =     -77.16211065 Ry
     estimated scf accuracy    <       0.00014202 Ry

     iteration # 10     ecut=    80.00 Ry     beta= 0.40
     Davidson diagonalization with overlap
     ethr =  2.78E-07,  avg # of iterations =  6.0

     total cpu time spent up to now is       79.2 secs

     total energy              =     -77.16210470 Ry
     Harris-Foulkes estimate   =     -77.16212213 Ry
     estimated scf accuracy    <       0.00008949 Ry

     iteration # 11     ecut=    80.00 Ry     beta= 0.40
     Davidson diagonalization with overlap
     ethr =  1.75E-07,  avg # of iterations =  3.0

     total cpu time spent up to now is       85.5 secs

     total energy              =     -77.16211307 Ry
     Harris-Foulkes estimate   =     -77.16211868 Ry
     estimated scf accuracy    <       0.00002203 Ry

     iteration # 12     ecut=    80.00 Ry     beta= 0.40
     Davidson diagonalization with overlap
     ethr =  4.32E-08,  avg # of iterations =  2.0

     total cpu time spent up to now is       91.6 secs

     total energy              =     -77.16211509 Ry
     Harris-Foulkes estimate   =     -77.16211598 Ry
     estimated scf accuracy    <       0.00000347 Ry

     iteration # 13     ecut=    80.00 Ry     beta= 0.40
     Davidson diagonalization with overlap
     ethr =  6.80E-09,  avg # of iterations =  5.0

     total cpu time spent up to now is       99.7 secs

     total energy              =     -77.16211596 Ry
     Harris-Foulkes estimate   =     -77.16211669 Ry
     estimated scf accuracy    <       0.00000342 Ry

     iteration # 14     ecut=    80.00 Ry     beta= 0.40
     Davidson diagonalization with overlap
     ethr =  6.70E-09,  avg # of iterations =  4.0

     total cpu time spent up to now is      106.0 secs

     total energy              =     -77.16211604 Ry
     Harris-Foulkes estimate   =     -77.16211665 Ry
     estimated scf accuracy    <       0.00000381 Ry

     iteration # 15     ecut=    80.00 Ry     beta= 0.40
     Davidson diagonalization with overlap
     ethr =  6.70E-09,  avg # of iterations =  2.0

     total cpu time spent up to now is      111.6 secs

     End of self-consistent calculation

          k = 0.0000 0.0000 0.0000 (252395 PWs)   bands (ev):

    -9.9965  -9.1545  -9.0981  -9.0980  -9.0598  -9.0597  -8.4090  -7.5383
    -7.4674  -7.4673  -6.7264  -5.8850  -5.8793  -5.8792  -5.6094  -5.6093
    -4.7519  -4.7519  -4.0026  -3.5337  -3.3090  -3.2900  -3.2899  -3.2354
    -3.1477  -3.1135  -3.1134  -3.0989  -3.0988  -2.7513  -2.7512

     the Fermi energy is    -3.1136 ev

!    total energy              =     -77.16211555 Ry
     Harris-Foulkes estimate   =     -77.16211637 Ry
     estimated scf accuracy    <       0.00000096 Ry

     The total energy is the sum of the following terms:

     one-electron contribution =    -269.13913672 Ry
     hartree contribution      =     139.26331441 Ry
     xc contribution           =     -33.51711640 Ry
     ewald contribution        =      86.35205259 Ry
     smearing contrib. (-TS)   =      -0.12122943 Ry

     convergence has been achieved in  15 iterations

     Forces acting on atoms (cartesian axes, Ry/au):

     atom    1 type  1   force =     0.00001183    0.00000261    0.00000000
     atom    2 type  1   force =     0.00822161   -0.00472465    0.00000000
     atom    3 type  1   force =    -0.00464991   -0.00191032    0.00000000
     atom    4 type  1   force =    -0.00000025   -0.00071164    0.00000000
     atom    5 type  1   force =     0.00400736   -0.00306106    0.00000000
     atom    6 type  1   force =     0.00000517    0.00949479    0.00000000
     atom    7 type  1   force =    -0.00398017   -0.00306024    0.00000000
     atom    8 type  1   force =     0.01927034    0.01112094    0.00000000
     atom    9 type  1   force =    -0.00063846    0.00498024    0.00000000
     atom   10 type  1   force =     0.00064286    0.00037199    0.00000000
     atom   11 type  1   force =     0.00000897   -0.00001499    0.00000000
     atom   12 type  1   force =    -0.00064583    0.00036741    0.00000000
     atom   13 type  1   force =     0.00465045   -0.00192291    0.00000000
     atom   14 type  1   force =    -0.00824167   -0.00473843    0.00000000
     atom   15 type  1   force =    -0.01929281    0.01110474    0.00000000
     atom   16 type  1   force =     0.00064809    0.00497445    0.00000000
     atom   17 type  1   force =    -0.00001759   -0.02227294    0.00000000

     Total force =     0.043707     Total SCF correction =     0.000641


     Computing stress (Cartesian axis) and pressure

          total   stress  (Ry/bohr**3)                   (kbar)     P=   -0.80
  -0.00000820   0.00000001   0.00000000         -1.21      0.00      0.00
   0.00000001  -0.00000820   0.00000000          0.00     -1.21      0.00
   0.00000000   0.00000000   0.00000002          0.00      0.00      0.00


     BFGS Geometry Optimization

     number of scf cycles    =   1
     number of bfgs steps    =   0

     enthalpy new            =     -77.1621155478 Ry

     new trust radius        =       0.0222729495 bohr
     new conv_thr            =       0.0000010000 Ry

     new unit-cell volume =  20877.24044 a.u.^3 (  3093.68781 Ang^3 )
     density =      0.27358 g/cm^3

CELL_PARAMETERS (alat= 25.26072511)
   0.999795001   0.000000257   0.000000000
  -0.499897278   0.865847839   0.000000000
   0.000000000   0.000000000   1.496177267

ATOMIC_POSITIONS (angstrom)
Al       0.000007507   2.572062168   0.000000000
Al       2.231820146   1.283530794   0.000000000
Al       4.452447311   2.571069433   0.000000000
Al       6.682377571   1.285673291   0.000000000
Al      -2.225316690   6.428513183   0.000000000
Al       0.000036152   5.149125763   0.000000000
Al       2.225364714   6.428532950   0.000000000
Al       4.465136105   5.150005450   0.000000000
Al      -4.455211576  10.290839484   0.000000000
Al      -2.227063400   9.002371078   0.000000000
Al       0.000038315  10.288216006   0.000000000
Al       2.227162153   9.002387993   0.000000000
Al       8.912275194   2.571082108   0.000000000
Al      11.132924652   1.283562179   0.000000000
Al       8.899640904   5.150016210   0.000000000
Al       4.455283807  10.290875101   0.000000000
Al       6.682401888   8.990429028   0.000000000



     Writing output data file 15al_planar_2x2_vcr.save/
     NEW-OLD atomic charge density approx. for the potential

     negative rho (up, down):  3.807E-07 0.000E+00
     extrapolated charge   50.97911, renormalised to   51.00000

     total cpu time spent up to now is      142.3 secs

     Self-consistent Calculation

     iteration #  1     ecut=    80.00 Ry     beta= 0.40
     Davidson diagonalization with overlap
     ethr =  1.00E-06,  avg # of iterations =  4.0

     negative rho (up, down):  1.933E-07 0.000E+00

     total cpu time spent up to now is      151.1 secs

     total energy              =     -77.16395491 Ry
     Harris-Foulkes estimate   =     -77.26491864 Ry
     estimated scf accuracy    <       0.00021927 Ry

     iteration #  2     ecut=    80.00 Ry     beta= 0.40
     Davidson diagonalization with overlap
     ethr =  4.30E-07,  avg # of iterations =  6.0

     negative rho (up, down):  1.695E-07 0.000E+00

     total cpu time spent up to now is      159.6 secs

     total energy              =     -77.16389724 Ry
     Harris-Foulkes estimate   =     -77.16421080 Ry
     estimated scf accuracy    <       0.00195204 Ry

     iteration #  3     ecut=    80.00 Ry     beta= 0.40
     Davidson diagonalization with overlap
     ethr =  4.30E-07,  avg # of iterations =  6.0

     negative rho (up, down):  1.203E-07 0.000E+00

     total cpu time spent up to now is      167.1 secs

     total energy              =     -77.16404694 Ry
     Harris-Foulkes estimate   =     -77.16406071 Ry
     estimated scf accuracy    <       0.00005742 Ry

     iteration #  4     ecut=    80.00 Ry     beta= 0.40
     Davidson diagonalization with overlap
     ethr =  1.13E-07,  avg # of iterations =  5.0

     negative rho (up, down):  8.178E-08 0.000E+00

     total cpu time spent up to now is      173.8 secs

     total energy              =     -77.16405252 Ry
     Harris-Foulkes estimate   =     -77.16405767 Ry
     estimated scf accuracy    <       0.00002098 Ry

     iteration #  5     ecut=    80.00 Ry     beta= 0.40
     Davidson diagonalization with overlap
     ethr =  4.11E-08,  avg # of iterations =  3.0

     negative rho (up, down):  3.332E-08 0.000E+00

     total cpu time spent up to now is      180.0 secs

     total energy              =     -77.16405505 Ry
     Harris-Foulkes estimate   =     -77.16405628 Ry
     estimated scf accuracy    <       0.00000540 Ry

     iteration #  6     ecut=    80.00 Ry     beta= 0.40
     Davidson diagonalization with overlap
     ethr =  1.06E-08,  avg # of iterations =  3.0

     negative rho (up, down):  1.924E-08 0.000E+00

     total cpu time spent up to now is      186.2 secs

     total energy              =     -77.16405525 Ry
     Harris-Foulkes estimate   =     -77.16405668 Ry
     estimated scf accuracy    <       0.00000652 Ry

     iteration #  7     ecut=    80.00 Ry     beta= 0.40
     Davidson diagonalization with overlap
     ethr =  1.06E-08,  avg # of iterations =  1.0

     negative rho (up, down):  1.068E-08 0.000E+00

     total cpu time spent up to now is      191.9 secs

     total energy              =     -77.16405611 Ry
     Harris-Foulkes estimate   =     -77.16405637 Ry
     estimated scf accuracy    <       0.00000149 Ry

     iteration #  8     ecut=    80.00 Ry     beta= 0.40
     Davidson diagonalization with overlap
     ethr =  2.92E-09,  avg # of iterations =  2.0

     total cpu time spent up to now is      197.3 secs

     End of self-consistent calculation

          k = 0.0000 0.0000 0.0000 (252395 PWs)   bands (ev):

    -9.9962  -9.1514  -9.0993  -9.0992  -9.0555  -9.0554  -8.4039  -7.5358
    -7.4655  -7.4655  -6.7337  -5.8834  -5.8717  -5.8716  -5.6128  -5.6128
    -4.7562  -4.7561  -4.0020  -3.5551  -3.2990  -3.2861  -3.2860  -3.2411
    -3.1448  -3.1119  -3.1119  -3.0975  -3.0974  -2.7445  -2.7444

     the Fermi energy is    -3.1120 ev

!    total energy              =     -77.16405626 Ry
     Harris-Foulkes estimate   =     -77.16405628 Ry
     estimated scf accuracy    <       0.00000012 Ry

     The total energy is the sum of the following terms:

     one-electron contribution =    -269.17416268 Ry
     hartree contribution      =     139.27830087 Ry
     xc contribution           =     -33.51194372 Ry
     ewald contribution        =      86.36394587 Ry
     smearing contrib. (-TS)   =      -0.12019659 Ry

     convergence has been achieved in   8 iterations

     Forces acting on atoms (cartesian axes, Ry/au):

     atom    1 type  1   force =     0.00000851    0.00000495    0.00000000
     atom    2 type  1   force =     0.00683550   -0.00393060    0.00000000
     atom    3 type  1   force =    -0.00399724   -0.00059712    0.00000000
     atom    4 type  1   force =    -0.00000075   -0.00026339    0.00000000
     atom    5 type  1   force =     0.00252334   -0.00316608    0.00000000
     atom    6 type  1   force =     0.00000232    0.00789097    0.00000000
     atom    7 type  1   force =    -0.00251421   -0.00317690    0.00000000
     atom    8 type  1   force =     0.01913413    0.01104963    0.00000000
     atom    9 type  1   force =    -0.00147060    0.00375798    0.00000000
     atom   10 type  1   force =     0.00022834    0.00013346    0.00000000
     atom   11 type  1   force =    -0.00000031    0.00000109    0.00000000
     atom   12 type  1   force =    -0.00022695    0.00013406    0.00000000
     atom   13 type  1   force =     0.00399893   -0.00059644    0.00000000
     atom   14 type  1   force =    -0.00684539   -0.00393736    0.00000000
     atom   15 type  1   force =    -0.01914543    0.01104066    0.00000000
     atom   16 type  1   force =     0.00148315    0.00375275    0.00000000
     atom   17 type  1   force =    -0.00001335   -0.02209767    0.00000000

     Total force =     0.041833     Total SCF correction =     0.000137


     Computing stress (Cartesian axis) and pressure

          total   stress  (Ry/bohr**3)                   (kbar)     P=   -0.87
  -0.00000887   0.00000001   0.00000000         -1.31      0.00      0.00
   0.00000001  -0.00000886   0.00000000          0.00     -1.30      0.00
   0.00000000   0.00000000   0.00000003          0.00      0.00      0.00


     number of scf cycles    =   2
     number of bfgs steps    =   1

     enthalpy old            =     -77.1621155478 Ry
     enthalpy new            =     -77.1640562592 Ry

     CASE: enthalpy_new < enthalpy_old


     WARNING: bfgs curvature condition failed, Theta= 0.836
     new trust radius        =       0.0334025792 bohr
     new conv_thr            =       0.0000010000 Ry

     new unit-cell volume =  20863.83048 a.u.^3 (  3091.70066 Ang^3 )
     density =      0.27375 g/cm^3

CELL_PARAMETERS (alat= 25.26072511)
   0.999473664   0.000000552   0.000000000
  -0.499736355   0.865569733   0.000000000
   0.000000000   0.000000000   1.496177267

ATOMIC_POSITIONS (angstrom)
Al       0.000016365   2.571239480   0.000000000
Al       2.237100240   1.279672145   0.000000000
Al       4.447573083   2.569246140   0.000000000
Al       6.680229823   1.284874006   0.000000000
Al      -2.221998047   6.423968975   0.000000000
Al       0.000040646   5.154397265   0.000000000
Al       2.222064311   6.423986061   0.000000000
Al       4.478996749   5.157182716   0.000000000
Al      -4.454616117  10.291015064   0.000000000
Al      -2.225997808   8.999681836   0.000000000
Al       0.000044790  10.284907678   0.000000000
Al       2.226101204   8.999698470   0.000000000
Al       8.912856377   2.569255375   0.000000000
Al      11.123337924   1.279697954   0.000000000
Al       8.881474382   5.157184730   0.000000000
Al       4.454703226  10.291048909   0.000000000
Al       6.680244465   8.969874631   0.000000000



     Writing output data file 15al_planar_2x2_vcr.save/
     NEW-OLD atomic charge density approx. for the potential

     negative rho (up, down):  6.041E-07 0.000E+00
     extrapolated charge   50.96725, renormalised to   51.00000

     total cpu time spent up to now is      226.9 secs

     Self-consistent Calculation

     iteration #  1     ecut=    80.00 Ry     beta= 0.40
     Davidson diagonalization with overlap
     ethr =  1.00E-06,  avg # of iterations =  4.0

     negative rho (up, down):  3.119E-07 0.000E+00

     total cpu time spent up to now is      235.2 secs

     total energy              =     -77.16668860 Ry
     Harris-Foulkes estimate   =     -77.32491315 Ry
     estimated scf accuracy    <       0.00020740 Ry

     iteration #  2     ecut=    80.00 Ry     beta= 0.40
     Davidson diagonalization with overlap
     ethr =  4.07E-07,  avg # of iterations =  4.0

     negative rho (up, down):  2.580E-07 0.000E+00

     total cpu time spent up to now is      241.8 secs

     total energy              =     -77.16671790 Ry
     Harris-Foulkes estimate   =     -77.16685504 Ry
     estimated scf accuracy    <       0.00063388 Ry

     iteration #  3     ecut=    80.00 Ry     beta= 0.40
     Davidson diagonalization with overlap
     ethr =  4.07E-07,  avg # of iterations =  3.0

     negative rho (up, down):  1.789E-07 0.000E+00

     total cpu time spent up to now is      247.8 secs

     total energy              =     -77.16677554 Ry
     Harris-Foulkes estimate   =     -77.16679016 Ry
     estimated scf accuracy    <       0.00006140 Ry

     iteration #  4     ecut=    80.00 Ry     beta= 0.40
     Davidson diagonalization with overlap
     ethr =  1.20E-07,  avg # of iterations =  4.0

     negative rho (up, down):  1.209E-07 0.000E+00

     total cpu time spent up to now is      253.1 secs

     total energy              =     -77.16677744 Ry
     Harris-Foulkes estimate   =     -77.16678544 Ry
     estimated scf accuracy    <       0.00003212 Ry

     iteration #  5     ecut=    80.00 Ry     beta= 0.40
     Davidson diagonalization with overlap
     ethr =  6.30E-08,  avg # of iterations =  6.0

     negative rho (up, down):  3.257E-08 0.000E+00

     total cpu time spent up to now is      258.5 secs

     total energy              =     -77.16678092 Ry
     Harris-Foulkes estimate   =     -77.16678443 Ry
     estimated scf accuracy    <       0.00002025 Ry

     iteration #  6     ecut=    80.00 Ry     beta= 0.40
     Davidson diagonalization with overlap
     ethr =  3.97E-08,  avg # of iterations =  3.0

     negative rho (up, down):  2.090E-08 0.000E+00

     total cpu time spent up to now is      263.5 secs

     total energy              =     -77.16678296 Ry
     Harris-Foulkes estimate   =     -77.16678348 Ry
     estimated scf accuracy    <       0.00000204 Ry

     iteration #  7     ecut=    80.00 Ry     beta= 0.40
     Davidson diagonalization with overlap
     ethr =  3.99E-09,  avg # of iterations =  6.0

     negative rho (up, down):  1.596E-08 0.000E+00

     total cpu time spent up to now is      270.4 secs

     total energy              =     -77.16678341 Ry
     Harris-Foulkes estimate   =     -77.16678395 Ry
     estimated scf accuracy    <       0.00000342 Ry

     iteration #  8     ecut=    80.00 Ry     beta= 0.40
     Davidson diagonalization with overlap
     ethr =  3.99E-09,  avg # of iterations =  2.0

     total cpu time spent up to now is      275.3 secs

     End of self-consistent calculation

          k = 0.0000 0.0000 0.0000 (252395 PWs)   bands (ev):

    -9.9961  -9.1476  -9.1020  -9.1019  -9.0490  -9.0488  -8.3978  -7.5324
    -7.4630  -7.4629  -6.7447  -5.8809  -5.8614  -5.8614  -5.6179  -5.6177
    -4.7626  -4.7625  -4.0014  -3.5881  -3.2847  -3.2804  -3.2804  -3.2488
    -3.1411  -3.1122  -3.1121  -3.0934  -3.0932  -2.7352  -2.7351

     the Fermi energy is    -3.1096 ev

!    total energy              =     -77.16678339 Ry
     Harris-Foulkes estimate   =     -77.16678367 Ry
     estimated scf accuracy    <       0.00000050 Ry

     The total energy is the sum of the following terms:

     one-electron contribution =    -269.23298222 Ry
     hartree contribution      =     139.30420291 Ry
     xc contribution           =     -33.50470297 Ry
     ewald contribution        =      86.38537691 Ry
     smearing contrib. (-TS)   =      -0.11867802 Ry

     convergence has been achieved in   8 iterations

     Forces acting on atoms (cartesian axes, Ry/au):

     atom    1 type  1   force =     0.00000229    0.00001790    0.00000000
     atom    2 type  1   force =     0.00495661   -0.00287114    0.00000000
     atom    3 type  1   force =    -0.00303298    0.00129406    0.00000000
     atom    4 type  1   force =     0.00000048    0.00033800    0.00000000
     atom    5 type  1   force =     0.00041391   -0.00327293    0.00000000
     atom    6 type  1   force =    -0.00000098    0.00573616    0.00000000
     atom    7 type  1   force =    -0.00041012   -0.00327641    0.00000000
     atom    8 type  1   force =     0.01887315    0.01090958    0.00000000
     atom    9 type  1   force =    -0.00261873    0.00197763    0.00000000
     atom   10 type  1   force =    -0.00028836   -0.00016469    0.00000000
     atom   11 type  1   force =     0.00000290   -0.00002393    0.00000000
     atom   12 type  1   force =     0.00028718   -0.00015969    0.00000000
     atom   13 type  1   force =     0.00303862    0.00129619    0.00000000
     atom   14 type  1   force =    -0.00496627   -0.00287254    0.00000000
     atom   15 type  1   force =    -0.01887458    0.01090028    0.00000000
     atom   16 type  1   force =     0.00262506    0.00197711    0.00000000
     atom   17 type  1   force =    -0.00000819   -0.02180557    0.00000000

     Total force =     0.039873     Total SCF correction =     0.000411


     Computing stress (Cartesian axis) and pressure

          total   stress  (Ry/bohr**3)                   (kbar)     P=   -0.96
  -0.00000981   0.00000000   0.00000000         -1.44      0.00      0.00
   0.00000000  -0.00000980   0.00000000          0.00     -1.44      0.00
   0.00000000   0.00000000   0.00000007          0.00      0.00      0.01


     number of scf cycles    =   3
     number of bfgs steps    =   2

     enthalpy old            =     -77.1640562592 Ry
     enthalpy new            =     -77.1667833930 Ry

     CASE: enthalpy_new < enthalpy_old

     new trust radius        =       0.0500877841 bohr
     new conv_thr            =       0.0000010000 Ry

     new unit-cell volume =  20842.42067 a.u.^3 (  3088.52805 Ang^3 )
     density =      0.27404 g/cm^3

CELL_PARAMETERS (alat= 25.26072511)
   0.998960617   0.000000976   0.000000000
  -0.499479463   0.865125384   0.000000000
   0.000000000   0.000000000   1.496177267

ATOMIC_POSITIONS (angstrom)
Al       0.000025717   2.569933238   0.000000000
Al       2.243833976   1.274472300   0.000000000
Al       4.440697231   2.567606349   0.000000000
Al       6.676801551   1.284005881   0.000000000
Al      -2.218247903   6.416863071   0.000000000
Al       0.000045297   5.160863001   0.000000000
Al       2.218339017   6.416881723   0.000000000
Al       4.499622863   5.167778372   0.000000000
Al      -4.454309695  10.289870583   0.000000000
Al      -2.224647396   8.995182311   0.000000000
Al       0.000057121  10.279604106   0.000000000
Al       2.224755425   8.995201045   0.000000000
Al       8.912880194   2.567610421   0.000000000
Al      11.109728600   1.274492646   0.000000000
Al       8.853980101   5.167766358   0.000000000
Al       4.454414478  10.289904712   0.000000000
Al       6.676803746   8.938783187   0.000000000



     Writing output data file 15al_planar_2x2_vcr.save/
     NEW-OLD atomic charge density approx. for the potential

     negative rho (up, down):  9.277E-07 0.000E+00
     extrapolated charge   50.94765, renormalised to   51.00000

     total cpu time spent up to now is      305.0 secs

     Self-consistent Calculation

     iteration #  1     ecut=    80.00 Ry     beta= 0.40
     Davidson diagonalization with overlap
     ethr =  1.00E-06,  avg # of iterations =  6.0

     negative rho (up, down):  4.851E-07 0.000E+00

     total cpu time spent up to now is      314.2 secs

     total energy              =     -77.17039145 Ry
     Harris-Foulkes estimate   =     -77.42339030 Ry
     estimated scf accuracy    <       0.00039199 Ry

     iteration #  2     ecut=    80.00 Ry     beta= 0.40
     Davidson diagonalization with overlap
     ethr =  7.69E-07,  avg # of iterations =  5.0

     negative rho (up, down):  4.102E-07 0.000E+00

     total cpu time spent up to now is      321.2 secs

     total energy              =     -77.17044389 Ry
     Harris-Foulkes estimate   =     -77.17076020 Ry
     estimated scf accuracy    <       0.00161642 Ry

     iteration #  3     ecut=    80.00 Ry     beta= 0.40
     Davidson diagonalization with overlap
     ethr =  7.69E-07,  avg # of iterations =  4.0

     negative rho (up, down):  3.126E-07 0.000E+00

     total cpu time spent up to now is      327.3 secs

     total energy              =     -77.17057047 Ry
     Harris-Foulkes estimate   =     -77.17060740 Ry
     estimated scf accuracy    <       0.00017073 Ry

     iteration #  4     ecut=    80.00 Ry     beta= 0.40
     Davidson diagonalization with overlap
     ethr =  3.35E-07,  avg # of iterations =  5.0

     negative rho (up, down):  2.240E-07 0.000E+00

     total cpu time spent up to now is      332.6 secs

     total energy              =     -77.17057668 Ry
     Harris-Foulkes estimate   =     -77.17059540 Ry
     estimated scf accuracy    <       0.00008972 Ry

     iteration #  5     ecut=    80.00 Ry     beta= 0.40
     Davidson diagonalization with overlap
     ethr =  1.76E-07,  avg # of iterations =  4.0

     negative rho (up, down):  5.134E-08 0.000E+00

     total cpu time spent up to now is      337.6 secs

     total energy              =     -77.17058345 Ry
     Harris-Foulkes estimate   =     -77.17058925 Ry
     estimated scf accuracy    <       0.00003001 Ry

     iteration #  6     ecut=    80.00 Ry     beta= 0.40
     Davidson diagonalization with overlap
     ethr =  5.89E-08,  avg # of iterations =  3.0

     negative rho (up, down):  3.609E-08 0.000E+00

     total cpu time spent up to now is      342.9 secs

     total energy              =     -77.17058634 Ry
     Harris-Foulkes estimate   =     -77.17058932 Ry
     estimated scf accuracy    <       0.00001287 Ry

     iteration #  7     ecut=    80.00 Ry     beta= 0.40
     Davidson diagonalization with overlap
     ethr =  2.52E-08,  avg # of iterations =  2.0

     negative rho (up, down):  2.585E-08 0.000E+00

     total cpu time spent up to now is      347.9 secs

     total energy              =     -77.17058786 Ry
     Harris-Foulkes estimate   =     -77.17058887 Ry
     estimated scf accuracy    <       0.00000520 Ry

     iteration #  8     ecut=    80.00 Ry     beta= 0.40
     Davidson diagonalization with overlap
     ethr =  1.02E-08,  avg # of iterations =  2.0

     total cpu time spent up to now is      352.8 secs

     End of self-consistent calculation

          k = 0.0000 0.0000 0.0000 (252395 PWs)   bands (ev):

    -9.9959  -9.1423  -9.1060  -9.1059  -9.0390  -9.0389  -8.3912  -7.5271
    -7.4590  -7.4590  -6.7605  -5.8764  -5.8475  -5.8474  -5.6243  -5.6242
    -4.7719  -4.7718  -4.0004  -3.6400  -3.2717  -3.2716  -3.2668  -3.2552
    -3.1356  -3.1137  -3.1136  -3.0858  -3.0857  -2.7219  -2.7218

     the Fermi energy is    -3.1056 ev

!    total energy              =     -77.17058817 Ry
     Harris-Foulkes estimate   =     -77.17058845 Ry
     estimated scf accuracy    <       0.00000077 Ry

     The total energy is the sum of the following terms:

     one-electron contribution =    -269.33293502 Ry
     hartree contribution      =     139.34790479 Ry
     xc contribution           =     -33.49437095 Ry
     ewald contribution        =      86.42531510 Ry
     smearing contrib. (-TS)   =      -0.11650209 Ry

     convergence has been achieved in   8 iterations

     Forces acting on atoms (cartesian axes, Ry/au):

     atom    1 type  1   force =    -0.00000185    0.00000313    0.00000000
     atom    2 type  1   force =     0.00249688   -0.00143227    0.00000000
     atom    3 type  1   force =    -0.00171291    0.00383837    0.00000000
     atom    4 type  1   force =     0.00000564    0.00115607    0.00000000
     atom    5 type  1   force =    -0.00248124   -0.00338420    0.00000000
     atom    6 type  1   force =    -0.00000057    0.00289340    0.00000000
     atom    7 type  1   force =     0.00247683   -0.00338617    0.00000000
     atom    8 type  1   force =     0.01844587    0.01067169    0.00000000
     atom    9 type  1   force =    -0.00418128   -0.00047057    0.00000000
     atom   10 type  1   force =    -0.00100267   -0.00058993    0.00000000
     atom   11 type  1   force =    -0.00000502   -0.00000651    0.00000000
     atom   12 type  1   force =     0.00101119   -0.00058707    0.00000000
     atom   13 type  1   force =     0.00170468    0.00384658    0.00000000
     atom   14 type  1   force =    -0.00249148   -0.00142883    0.00000000
     atom   15 type  1   force =    -0.01844494    0.01066485    0.00000000
     atom   16 type  1   force =     0.00418163   -0.00047413    0.00000000
     atom   17 type  1   force =    -0.00000076   -0.02131441    0.00000000

     Total force =     0.038696     Total SCF correction =     0.000409


     Computing stress (Cartesian axis) and pressure

          total   stress  (Ry/bohr**3)                   (kbar)     P=   -1.09
  -0.00001116   0.00000000   0.00000000         -1.64      0.00      0.00
   0.00000000  -0.00001114   0.00000000          0.00     -1.64      0.00
   0.00000000   0.00000000   0.00000010          0.00      0.00      0.01


     number of scf cycles    =   4
     number of bfgs steps    =   3

     enthalpy old            =     -77.1667833930 Ry
     enthalpy new            =     -77.1705881674 Ry

     CASE: enthalpy_new < enthalpy_old

     new trust radius        =       0.0750931250 bohr
     new conv_thr            =       0.0000010000 Ry

     new unit-cell volume =  20808.64233 a.u.^3 (  3083.52262 Ang^3 )
     density =      0.27448 g/cm^3

CELL_PARAMETERS (alat= 25.26072511)
   0.998150475   0.000001572   0.000000000
  -0.499073877   0.864424052   0.000000000
   0.000000000   0.000000000   1.496177267

ATOMIC_POSITIONS (angstrom)
Al       0.000038018   2.567858266   0.000000000
Al       2.252595973   1.267358492   0.000000000
Al       4.430882630   2.566418139   0.000000000
Al       6.671391335   1.283091921   0.000000000
Al      -2.214085069   6.405859781   0.000000000
Al       0.000053079   5.168909895   0.000000000
Al       2.214209581   6.405881430   0.000000000
Al       4.530332028   5.183440499   0.000000000
Al      -4.454532993  10.286441021   0.000000000
Al      -2.222915481   8.987840537   0.000000000
Al       0.000070028  10.271249141   0.000000000
Al       2.223036428   8.987859739   0.000000000
Al       8.911864003   2.566417209   0.000000000
Al      11.090120194   1.267372200   0.000000000
Al       8.812425190   5.183408260   0.000000000
Al       4.454660095  10.286472361   0.000000000
Al       6.671374997   8.891838483   0.000000000



     Writing output data file 15al_planar_2x2_vcr.save/
     NEW-OLD atomic charge density approx. for the potential

     negative rho (up, down):  1.406E-06 0.000E+00
     extrapolated charge   50.91728, renormalised to   51.00000

     total cpu time spent up to now is      382.4 secs

     Self-consistent Calculation

     iteration #  1     ecut=    80.00 Ry     beta= 0.40
     Davidson diagonalization with overlap
     ethr =  1.00E-06,  avg # of iterations =  7.0

     negative rho (up, down):  7.478E-07 0.000E+00

     total cpu time spent up to now is      392.1 secs

     total energy              =     -77.17528394 Ry
     Harris-Foulkes estimate   =     -77.57560875 Ry
     estimated scf accuracy    <       0.00107686 Ry

     iteration #  2     ecut=    80.00 Ry     beta= 0.40
     Davidson diagonalization with overlap
     ethr =  2.11E-06,  avg # of iterations =  5.0

     negative rho (up, down):  6.339E-07 0.000E+00

     total cpu time spent up to now is      399.1 secs

     total energy              =     -77.17544418 Ry
     Harris-Foulkes estimate   =     -77.17644184 Ry
     estimated scf accuracy    <       0.00512482 Ry

     iteration #  3     ecut=    80.00 Ry     beta= 0.40
     Davidson diagonalization with overlap
     ethr =  2.11E-06,  avg # of iterations =  3.0

     negative rho (up, down):  4.829E-07 0.000E+00

     total cpu time spent up to now is      405.0 secs

     total energy              =     -77.17584725 Ry
     Harris-Foulkes estimate   =     -77.17590130 Ry
     estimated scf accuracy    <       0.00026567 Ry

     iteration #  4     ecut=    80.00 Ry     beta= 0.40
     Davidson diagonalization with overlap
     ethr =  5.21E-07,  avg # of iterations =  4.0

     negative rho (up, down):  3.641E-07 0.000E+00

     total cpu time spent up to now is      410.2 secs

     total energy              =     -77.17584858 Ry
     Harris-Foulkes estimate   =     -77.17588428 Ry
     estimated scf accuracy    <       0.00018573 Ry

     iteration #  5     ecut=    80.00 Ry     beta= 0.40
     Davidson diagonalization with overlap
     ethr =  3.64E-07,  avg # of iterations =  4.0

     negative rho (up, down):  5.792E-08 0.000E+00

     total cpu time spent up to now is      415.3 secs

     total energy              =     -77.17585411 Ry
     Harris-Foulkes estimate   =     -77.17587213 Ry
     estimated scf accuracy    <       0.00008437 Ry

     iteration #  6     ecut=    80.00 Ry     beta= 0.40
     Davidson diagonalization with overlap
     ethr =  1.65E-07,  avg # of iterations =  4.0

     negative rho (up, down):  4.367E-08 0.000E+00

     total cpu time spent up to now is      421.2 secs

     total energy              =     -77.17586606 Ry
     Harris-Foulkes estimate   =     -77.17587088 Ry
     estimated scf accuracy    <       0.00002421 Ry

     iteration #  7     ecut=    80.00 Ry     beta= 0.40
     Davidson diagonalization with overlap
     ethr =  4.75E-08,  avg # of iterations =  3.0

     negative rho (up, down):  3.389E-08 0.000E+00

     total cpu time spent up to now is      426.6 secs

     total energy              =     -77.17586750 Ry
     Harris-Foulkes estimate   =     -77.17587026 Ry
     estimated scf accuracy    <       0.00001500 Ry

     iteration #  8     ecut=    80.00 Ry     beta= 0.40
     Davidson diagonalization with overlap
     ethr =  2.94E-08,  avg # of iterations =  1.0

     negative rho (up, down):  1.560E-08 0.000E+00

     total cpu time spent up to now is      431.7 secs

     total energy              =     -77.17586757 Ry
     Harris-Foulkes estimate   =     -77.17586871 Ry
     estimated scf accuracy    <       0.00000427 Ry

     iteration #  9     ecut=    80.00 Ry     beta= 0.40
     Davidson diagonalization with overlap
     ethr =  8.37E-09,  avg # of iterations =  4.0

     total cpu time spent up to now is      438.1 secs

     total energy              =     -77.17586822 Ry
     Harris-Foulkes estimate   =     -77.17586888 Ry
     estimated scf accuracy    <       0.00000456 Ry

     iteration # 10     ecut=    80.00 Ry     beta= 0.40
     Davidson diagonalization with overlap
     ethr =  8.37E-09,  avg # of iterations =  1.0

     total cpu time spent up to now is      442.7 secs

     End of self-consistent calculation

          k = 0.0000 0.0000 0.0000 (252395 PWs)   bands (ev):

    -9.9942  -9.1334  -9.1099  -9.1097  -9.0238  -9.0237  -8.3842  -7.5174
    -7.4521  -7.4520  -6.7837  -5.8673  -5.8275  -5.8274  -5.6319  -5.6317
    -4.7845  -4.7844  -3.9978  -3.7242  -3.2730  -3.2565  -3.2565  -3.2269
    -3.1265  -3.1147  -3.1146  -3.0739  -3.0737  -2.7019  -2.7019

     the Fermi energy is    -3.0975 ev

!    total energy              =     -77.17586811 Ry
     Harris-Foulkes estimate   =     -77.17586859 Ry
     estimated scf accuracy    <       0.00000063 Ry

     The total energy is the sum of the following terms:

     one-electron contribution =    -269.49896936 Ry
     hartree contribution      =     139.41837248 Ry
     xc contribution           =     -33.47903741 Ry
     ewald contribution        =      86.49740455 Ry
     smearing contrib. (-TS)   =      -0.11363837 Ry

     convergence has been achieved in  10 iterations

     Forces acting on atoms (cartesian axes, Ry/au):

     atom    1 type  1   force =     0.00000876   -0.00000525    0.00000000
     atom    2 type  1   force =    -0.00071167    0.00039937    0.00000000
     atom    3 type  1   force =     0.00032958    0.00722281    0.00000000
     atom    4 type  1   force =    -0.00000758    0.00219484    0.00000000
     atom    5 type  1   force =    -0.00643514   -0.00330381    0.00000000
     atom    6 type  1   force =     0.00000890   -0.00083053    0.00000000
     atom    7 type  1   force =     0.00642674   -0.00334815    0.00000000
     atom    8 type  1   force =     0.01749012    0.01009543    0.00000000
     atom    9 type  1   force =    -0.00610177   -0.00389200    0.00000000
     atom   10 type  1   force =    -0.00191013   -0.00110216    0.00000000
     atom   11 type  1   force =    -0.00002119    0.00001750    0.00000000
     atom   12 type  1   force =     0.00191412   -0.00110308    0.00000000
     atom   13 type  1   force =    -0.00035983    0.00722328    0.00000000
     atom   14 type  1   force =     0.00073715    0.00040238    0.00000000
     atom   15 type  1   force =    -0.01748588    0.01010870    0.00000000
     atom   16 type  1   force =     0.00611396   -0.00389946    0.00000000
     atom   17 type  1   force =     0.00000385   -0.02017987    0.00000000

     Total force =     0.039421     Total SCF correction =     0.000680


     Computing stress (Cartesian axis) and pressure

          total   stress  (Ry/bohr**3)                   (kbar)     P=   -1.28
  -0.00001310   0.00000000   0.00000000         -1.93      0.00      0.00
   0.00000000  -0.00001310   0.00000000          0.00     -1.93      0.00
   0.00000000   0.00000000  -0.00000000          0.00      0.00     -0.00


     number of scf cycles    =   5
     number of bfgs steps    =   4

     enthalpy old            =     -77.1705881674 Ry
     enthalpy new            =     -77.1758681073 Ry

     CASE: enthalpy_new < enthalpy_old

     new trust radius        =       0.1125484128 bohr
     new conv_thr            =       0.0000010000 Ry

     new unit-cell volume =  20755.35988 a.u.^3 (  3075.62697 Ang^3 )
     density =      0.27519 g/cm^3

CELL_PARAMETERS (alat= 25.26072511)
   0.996871487   0.000002573   0.000000000
  -0.498433515   0.863316331   0.000000000
   0.000000000   0.000000000   1.496177267

ATOMIC_POSITIONS (angstrom)
Al       0.000066645   2.564573753   0.000000000
Al       2.264143723   1.257432039   0.000000000
Al       4.416901245   2.566214473   0.000000000
Al       6.662839365   1.282159695   0.000000000
Al      -2.209717157   6.388957969   0.000000000
Al       0.000073168   5.178955508   0.000000000
Al       2.209894089   6.388952844   0.000000000
Al       4.576018621   5.206528009   0.000000000
Al      -4.455584880  10.278908801   0.000000000
Al      -2.220628585   8.975996762   0.000000000
Al       0.000079904  10.258073384   0.000000000
Al       2.220766382   8.976013385   0.000000000
Al       8.908731919   2.566198550   0.000000000
Al      11.061462301   1.257434061   0.000000000
Al       8.749617809   5.206479354   0.000000000
Al       4.455758190  10.278933466   0.000000000
Al       6.662807390   8.820974094   0.000000000



     Writing output data file 15al_planar_2x2_vcr.save/
     NEW-OLD atomic charge density approx. for the potential

     negative rho (up, down):  2.102E-06 0.000E+00
     extrapolated charge   50.86918, renormalised to   51.00000

     total cpu time spent up to now is      472.4 secs

     Self-consistent Calculation

     iteration #  1     ecut=    80.00 Ry     beta= 0.40
     Davidson diagonalization with overlap
     ethr =  1.00E-06,  avg # of iterations =  8.0

     negative rho (up, down):  1.139E-06 0.000E+00

     total cpu time spent up to now is      482.7 secs

     total energy              =     -77.18103741 Ry
     Harris-Foulkes estimate   =     -77.81573609 Ry
     estimated scf accuracy    <       0.00324669 Ry

     iteration #  2     ecut=    80.00 Ry     beta= 0.40
     Davidson diagonalization with overlap
     ethr =  6.37E-06,  avg # of iterations =  5.0

     negative rho (up, down):  9.687E-07 0.000E+00

     total cpu time spent up to now is      489.6 secs

     total energy              =     -77.18138302 Ry
     Harris-Foulkes estimate   =     -77.18480474 Ry
     estimated scf accuracy    <       0.01805225 Ry

     iteration #  3     ecut=    80.00 Ry     beta= 0.40
     Davidson diagonalization with overlap
     ethr =  6.37E-06,  avg # of iterations =  4.0

     negative rho (up, down):  8.004E-07 0.000E+00

     total cpu time spent up to now is      495.8 secs

     total energy              =     -77.18277069 Ry
     Harris-Foulkes estimate   =     -77.18297590 Ry
     estimated scf accuracy    <       0.00107221 Ry

     iteration #  4     ecut=    80.00 Ry     beta= 0.40
     Davidson diagonalization with overlap
     ethr =  2.10E-06,  avg # of iterations =  5.0

     negative rho (up, down):  6.235E-07 0.000E+00

     total cpu time spent up to now is      501.2 secs

     total energy              =     -77.18282433 Ry
     Harris-Foulkes estimate   =     -77.18291017 Ry
     estimated scf accuracy    <       0.00053683 Ry

     iteration #  5     ecut=    80.00 Ry     beta= 0.40
     Davidson diagonalization with overlap
     ethr =  1.05E-06,  avg # of iterations =  4.0

     negative rho (up, down):  6.895E-08 0.000E+00

     total cpu time spent up to now is      506.5 secs

     total energy              =     -77.18281172 Ry
     Harris-Foulkes estimate   =     -77.18286628 Ry
     estimated scf accuracy    <       0.00019209 Ry

     iteration #  6     ecut=    80.00 Ry     beta= 0.40
     Davidson diagonalization with overlap
     ethr =  3.77E-07,  avg # of iterations =  4.0

     negative rho (up, down):  4.473E-08 0.000E+00

     total cpu time spent up to now is      512.9 secs

     total energy              =     -77.18285440 Ry
     Harris-Foulkes estimate   =     -77.18286734 Ry
     estimated scf accuracy    <       0.00007318 Ry

     iteration #  7     ecut=    80.00 Ry     beta= 0.40
     Davidson diagonalization with overlap
     ethr =  1.43E-07,  avg # of iterations =  2.0

     negative rho (up, down):  3.749E-08 0.000E+00

     total cpu time spent up to now is      517.7 secs

     total energy              =     -77.18285544 Ry
     Harris-Foulkes estimate   =     -77.18286150 Ry
     estimated scf accuracy    <       0.00004046 Ry

     iteration #  8     ecut=    80.00 Ry     beta= 0.40
     Davidson diagonalization with overlap
     ethr =  7.93E-08,  avg # of iterations =  1.0

     negative rho (up, down):  1.577E-08 0.000E+00

     total cpu time spent up to now is      522.6 secs

     total energy              =     -77.18285307 Ry
     Harris-Foulkes estimate   =     -77.18285798 Ry
     estimated scf accuracy    <       0.00001721 Ry

     iteration #  9     ecut=    80.00 Ry     beta= 0.40
     Davidson diagonalization with overlap
     ethr =  3.37E-08,  avg # of iterations =  3.0

     total cpu time spent up to now is      528.4 secs

     total energy              =     -77.18285514 Ry
     Harris-Foulkes estimate   =     -77.18285663 Ry
     estimated scf accuracy    <       0.00000921 Ry

     iteration # 10     ecut=    80.00 Ry     beta= 0.40
     Davidson diagonalization with overlap
     ethr =  1.80E-08,  avg # of iterations =  1.0

     total cpu time spent up to now is      533.4 secs

     total energy              =     -77.18285576 Ry
     Harris-Foulkes estimate   =     -77.18285604 Ry
     estimated scf accuracy    <       0.00000165 Ry

     iteration # 11     ecut=    80.00 Ry     beta= 0.40
     Davidson diagonalization with overlap
     ethr =  3.23E-09,  avg # of iterations =  6.0

     total cpu time spent up to now is      539.3 secs

     End of self-consistent calculation

          k = 0.0000 0.0000 0.0000 (252395 PWs)   bands (ev):

    -9.9934  -9.1207  -9.1162  -9.1162  -9.0056  -9.0056  -8.3835  -7.5053
    -7.4437  -7.4436  -6.8236  -5.8529  -5.8028  -5.8028  -5.6442  -5.6441
    -4.8051  -4.8050  -3.9953  -3.8670  -3.2899  -3.2347  -3.2347  -3.1778
    -3.1159  -3.1158  -3.1129  -3.0592  -3.0592  -2.6761  -2.6760

     the Fermi energy is    -3.0847 ev

!    total energy              =     -77.18285577 Ry
     Harris-Foulkes estimate   =     -77.18285602 Ry
     estimated scf accuracy    <       0.00000047 Ry

     The total energy is the sum of the following terms:

     one-electron contribution =    -269.78789166 Ry
     hartree contribution      =     139.54545521 Ry
     xc contribution           =     -33.45861394 Ry
     ewald contribution        =      86.62913070 Ry
     smearing contrib. (-TS)   =      -0.11093608 Ry

     convergence has been achieved in  11 iterations

     Forces acting on atoms (cartesian axes, Ry/au):

     atom    1 type  1   force =    -0.00002344    0.00001003    0.00000000
     atom    2 type  1   force =    -0.00517228    0.00296722    0.00000000
     atom    3 type  1   force =     0.00356587    0.01183344    0.00000000
     atom    4 type  1   force =     0.00000841    0.00366129    0.00000000
     atom    5 type  1   force =    -0.01205321   -0.00285613    0.00000000
     atom    6 type  1   force =    -0.00000426   -0.00597409    0.00000000
     atom    7 type  1   force =     0.01201946   -0.00284007    0.00000000
     atom    8 type  1   force =     0.01492764    0.00861641    0.00000000
     atom    9 type  1   force =    -0.00849990   -0.00899131    0.00000000
     atom   10 type  1   force =    -0.00317881   -0.00185456    0.00000000
     atom   11 type  1   force =     0.00000258    0.00002549    0.00000000
     atom   12 type  1   force =     0.00318322   -0.00184218    0.00000000
     atom   13 type  1   force =    -0.00355464    0.01183961    0.00000000
     atom   14 type  1   force =     0.00517657    0.00298783    0.00000000
     atom   15 type  1   force =    -0.01489718    0.00862214    0.00000000
     atom   16 type  1   force =     0.00848290   -0.00898400    0.00000000
     atom   17 type  1   force =     0.00001707   -0.01722112    0.00000000

     Total force =     0.044211     Total SCF correction =     0.000508


     Computing stress (Cartesian axis) and pressure

          total   stress  (Ry/bohr**3)                   (kbar)     P=   -1.55
  -0.00001582  -0.00000001   0.00000000         -2.33     -0.00      0.00
  -0.00000001  -0.00001584   0.00000000         -0.00     -2.33      0.00
   0.00000000   0.00000000  -0.00000001          0.00      0.00     -0.00


     number of scf cycles    =   6
     number of bfgs steps    =   5

     enthalpy old            =     -77.1758681073 Ry
     enthalpy new            =     -77.1828557717 Ry

     CASE: enthalpy_new < enthalpy_old

     new trust radius        =       0.1686063786 bohr
     new conv_thr            =       0.0000010000 Ry

     new unit-cell volume =  20670.25475 a.u.^3 (  3063.01570 Ang^3 )
     density =      0.27632 g/cm^3

CELL_PARAMETERS (alat= 25.26072511)
   0.994825543   0.000003526   0.000000000
  -0.497409718   0.861544120   0.000000000
   0.000000000   0.000000000   1.496177267

ATOMIC_POSITIONS (angstrom)
Al       0.000083705   2.559330146   0.000000000
Al       2.279094968   1.243580234   0.000000000
Al       4.397174054   2.568341333   0.000000000
Al       6.649171864   1.281460900   0.000000000
Al      -2.206185675   6.362928395   0.000000000
Al       0.000090278   5.190960963   0.000000000
Al       2.206418767   6.362932526   0.000000000
Al       4.643700994   5.240335083   0.000000000
Al      -4.458101206  10.263352001   0.000000000
Al      -2.217665346   8.956632932   0.000000000
Al       0.000111630  10.236998235   0.000000000
Al       2.217817661   8.956653237   0.000000000
Al       8.901119260   2.568302380   0.000000000
Al      11.019117283   1.243571204   0.000000000
Al       8.654561718   5.240249826   0.000000000
Al       4.458310112  10.263373304   0.000000000
Al       6.649106042   8.713838204   0.000000000



     Writing output data file 15al_planar_2x2_vcr.save/
     NEW-OLD atomic charge density approx. for the potential

     negative rho (up, down):  3.527E-06 0.000E+00
     extrapolated charge   50.79019, renormalised to   51.00000

     total cpu time spent up to now is      568.8 secs

     Self-consistent Calculation

     iteration #  1     ecut=    80.00 Ry     beta= 0.40
     Davidson diagonalization with overlap
     ethr =  1.00E-06,  avg # of iterations =  9.0

     negative rho (up, down):  1.946E-06 0.000E+00

     total cpu time spent up to now is      580.5 secs

     total energy              =     -77.18573190 Ry
     Harris-Foulkes estimate   =     -78.20788614 Ry
     estimated scf accuracy    <       0.00899197 Ry

     iteration #  2     ecut=    80.00 Ry     beta= 0.40
     Davidson diagonalization with overlap
     ethr =  1.76E-05,  avg # of iterations = 11.0

     negative rho (up, down):  1.662E-06 0.000E+00

     total cpu time spent up to now is      588.2 secs

     total energy              =     -77.18615799 Ry
     Harris-Foulkes estimate   =     -77.19676081 Ry
     estimated scf accuracy    <       0.05927589 Ry

     iteration #  3     ecut=    80.00 Ry     beta= 0.40
     Davidson diagonalization with overlap
     ethr =  1.76E-05,  avg # of iterations =  4.0

     negative rho (up, down):  1.372E-06 0.000E+00

     total cpu time spent up to now is      594.8 secs

     total energy              =     -77.19036411 Ry
     Harris-Foulkes estimate   =     -77.19069648 Ry
     estimated scf accuracy    <       0.00262269 Ry

     iteration #  4     ecut=    80.00 Ry     beta= 0.40
     Davidson diagonalization with overlap
     ethr =  5.14E-06,  avg # of iterations =  3.0

     negative rho (up, down):  1.029E-06 0.000E+00

     total cpu time spent up to now is      600.3 secs

     total energy              =     -77.19030519 Ry
     Harris-Foulkes estimate   =     -77.19051171 Ry
     estimated scf accuracy    <       0.00152357 Ry

     iteration #  5     ecut=    80.00 Ry     beta= 0.40
     Davidson diagonalization with overlap
     ethr =  2.99E-06,  avg # of iterations =  1.0

     negative rho (up, down):  1.046E-07 0.000E+00

     total cpu time spent up to now is      605.2 secs

     total energy              =     -77.19007669 Ry
     Harris-Foulkes estimate   =     -77.19040290 Ry
     estimated scf accuracy    <       0.00109708 Ry

     iteration #  6     ecut=    80.00 Ry     beta= 0.40
     Davidson diagonalization with overlap
     ethr =  2.15E-06,  avg # of iterations =  3.0

     negative rho (up, down):  5.423E-08 0.000E+00

     total cpu time spent up to now is      611.2 secs

     total energy              =     -77.19026890 Ry
     Harris-Foulkes estimate   =     -77.19033671 Ry
     estimated scf accuracy    <       0.00042766 Ry

     iteration #  7     ecut=    80.00 Ry     beta= 0.40
     Davidson diagonalization with overlap
     ethr =  8.39E-07,  avg # of iterations =  3.0

     negative rho (up, down):  4.648E-08 0.000E+00

     total cpu time spent up to now is      616.6 secs

     total energy              =     -77.19029426 Ry
     Harris-Foulkes estimate   =     -77.19031882 Ry
     estimated scf accuracy    <       0.00013630 Ry

     iteration #  8     ecut=    80.00 Ry     beta= 0.40
     Davidson diagonalization with overlap
     ethr =  2.67E-07,  avg # of iterations =  3.0

     negative rho (up, down):  3.641E-08 0.000E+00

     total cpu time spent up to now is      622.0 secs

     total energy              =     -77.19029273 Ry
     Harris-Foulkes estimate   =     -77.19030488 Ry
     estimated scf accuracy    <       0.00008319 Ry

     iteration #  9     ecut=    80.00 Ry     beta= 0.40
     Davidson diagonalization with overlap
     ethr =  1.63E-07,  avg # of iterations =  1.0

     total cpu time spent up to now is      626.8 secs

     total energy              =     -77.19028184 Ry
     Harris-Foulkes estimate   =     -77.19029699 Ry
     estimated scf accuracy    <       0.00004546 Ry

     iteration # 10     ecut=    80.00 Ry     beta= 0.40
     Davidson diagonalization with overlap
     ethr =  8.91E-08,  avg # of iterations =  3.0

     negative rho (up, down):  1.222E-08 0.000E+00

     total cpu time spent up to now is      633.2 secs

     total energy              =     -77.19029156 Ry
     Harris-Foulkes estimate   =     -77.19029239 Ry
     estimated scf accuracy    <       0.00000566 Ry

     iteration # 11     ecut=    80.00 Ry     beta= 0.40
     Davidson diagonalization with overlap
     ethr =  1.11E-08,  avg # of iterations =  3.0

     negative rho (up, down):  1.315E-08 0.000E+00

     total cpu time spent up to now is      639.1 secs

     total energy              =     -77.19029082 Ry
     Harris-Foulkes estimate   =     -77.19029220 Ry
     estimated scf accuracy    <       0.00000386 Ry

     iteration # 12     ecut=    80.00 Ry     beta= 0.40
     Davidson diagonalization with overlap
     ethr =  7.56E-09,  avg # of iterations = 20.0

     negative rho (up, down):  1.348E-08 0.000E+00

     total cpu time spent up to now is      647.6 secs

     total energy              =     -77.19089171 Ry
     Harris-Foulkes estimate   =     -77.19089242 Ry
     estimated scf accuracy    <       0.00041597 Ry

     iteration # 13     ecut=    80.00 Ry     beta= 0.40
     Davidson diagonalization with overlap
     ethr =  7.56E-09,  avg # of iterations =  1.0

     total cpu time spent up to now is      652.9 secs

     total energy              =     -77.19088802 Ry
     Harris-Foulkes estimate   =     -77.19089174 Ry
     estimated scf accuracy    <       0.00041301 Ry

     iteration # 14     ecut=    80.00 Ry     beta= 0.40
     Davidson diagonalization with overlap
     ethr =  7.56E-09,  avg # of iterations =  1.0

     total cpu time spent up to now is      657.9 secs

     total energy              =     -77.19087889 Ry
     Harris-Foulkes estimate   =     -77.19088809 Ry
     estimated scf accuracy    <       0.00039963 Ry

     iteration # 15     ecut=    80.00 Ry     beta= 0.40
     Davidson diagonalization with overlap
     ethr =  7.56E-09,  avg # of iterations =  1.0

     total cpu time spent up to now is      662.9 secs

     total energy              =     -77.19086524 Ry
     Harris-Foulkes estimate   =     -77.19087923 Ry
     estimated scf accuracy    <       0.00035155 Ry

     iteration # 16     ecut=    80.00 Ry     beta= 0.40
     Davidson diagonalization with overlap
     ethr =  7.56E-09,  avg # of iterations =  4.0

     total cpu time spent up to now is      668.6 secs

     total energy              =     -77.19086572 Ry
     Harris-Foulkes estimate   =     -77.19086586 Ry
     estimated scf accuracy    <       0.00028046 Ry

     iteration # 17     ecut=    80.00 Ry     beta= 0.40
     Davidson diagonalization with overlap
     ethr =  7.56E-09,  avg # of iterations =  1.0

     total cpu time spent up to now is      673.8 secs

     total energy              =     -77.19086093 Ry
     Harris-Foulkes estimate   =     -77.19086578 Ry
     estimated scf accuracy    <       0.00027866 Ry

     iteration # 18     ecut=    80.00 Ry     beta= 0.40
     Davidson diagonalization with overlap
     ethr =  7.56E-09,  avg # of iterations =  1.0

     total cpu time spent up to now is      679.0 secs

     total energy              =     -77.19085006 Ry
     Harris-Foulkes estimate   =     -77.19086108 Ry
     estimated scf accuracy    <       0.00025426 Ry

     iteration # 19     ecut=    80.00 Ry     beta= 0.40
     Davidson diagonalization with overlap
     ethr =  7.56E-09,  avg # of iterations =  3.0

     total cpu time spent up to now is      684.6 secs

     total energy              =     -77.19085462 Ry
     Harris-Foulkes estimate   =     -77.19085057 Ry
     estimated scf accuracy    <       0.00020110 Ry

     iteration # 20     ecut=    80.00 Ry     beta= 0.40
     Davidson diagonalization with overlap
     ethr =  7.56E-09,  avg # of iterations =  1.0

     total cpu time spent up to now is      689.9 secs

     total energy              =     -77.19078463 Ry
     Harris-Foulkes estimate   =     -77.19085478 Ry
     estimated scf accuracy    <       0.00021924 Ry

     iteration # 21     ecut=    80.00 Ry     beta= 0.40
     Davidson diagonalization with overlap
     ethr =  7.56E-09,  avg # of iterations =  7.0

     total cpu time spent up to now is      699.8 secs

     total energy              =     -77.19080877 Ry
     Harris-Foulkes estimate   =     -77.19081334 Ry
     estimated scf accuracy    <       0.00001584 Ry

     iteration # 22     ecut=    80.00 Ry     beta= 0.40
     Davidson diagonalization with overlap
     ethr =  7.56E-09,  avg # of iterations =  5.0

     total cpu time spent up to now is      707.1 secs

     total energy              =     -77.19081080 Ry
     Harris-Foulkes estimate   =     -77.19081184 Ry
     estimated scf accuracy    <       0.00000427 Ry

     iteration # 23     ecut=    80.00 Ry     beta= 0.40
     Davidson diagonalization with overlap
     ethr =  7.56E-09,  avg # of iterations =  3.0

     total cpu time spent up to now is      712.5 secs

     End of self-consistent calculation

          k = 0.0000 0.0000 0.0000 (252395 PWs)   bands (ev):

    -9.9941  -9.1255  -9.1252  -9.1016  -8.9847  -8.9844  -8.4030  -7.4897
    -7.4330  -7.4328  -6.8937  -5.8299  -5.7778  -5.7778  -5.6605  -5.6603
    -4.8358  -4.8357  -4.1073  -3.9932  -3.3113  -3.2023  -3.2022  -3.1162
    -3.1160  -3.1045  -3.0916  -3.0425  -3.0422  -2.6454  -2.6452

     the Fermi energy is    -3.0631 ev

!    total energy              =     -77.19081077 Ry
     Harris-Foulkes estimate   =     -77.19081134 Ry
     estimated scf accuracy    <       0.00000080 Ry

     The total energy is the sum of the following terms:

     one-electron contribution =    -270.30238100 Ry
     hartree contribution      =     139.77428223 Ry
     xc contribution           =     -33.43117442 Ry
     ewald contribution        =      86.87955190 Ry
     smearing contrib. (-TS)   =      -0.11108948 Ry

     convergence has been achieved in  23 iterations

     Forces acting on atoms (cartesian axes, Ry/au):

     atom    1 type  1   force =    -0.00000742    0.00000555    0.00000000
     atom    2 type  1   force =    -0.01117959    0.00642327    0.00000000
     atom    3 type  1   force =     0.00875812    0.01776229    0.00000000
     atom    4 type  1   force =     0.00000020    0.00556771    0.00000000
     atom    5 type  1   force =    -0.01980483   -0.00133483    0.00000000
     atom    6 type  1   force =     0.00000485   -0.01291971    0.00000000
     atom    7 type  1   force =     0.01976167   -0.00133544    0.00000000
     atom    8 type  1   force =     0.00914307    0.00528672    0.00000000
     atom    9 type  1   force =    -0.01104046   -0.01641754    0.00000000
     atom   10 type  1   force =    -0.00483814   -0.00281436    0.00000000
     atom   11 type  1   force =    -0.00001990    0.00006861    0.00000000
     atom   12 type  1   force =     0.00483626   -0.00283509    0.00000000
     atom   13 type  1   force =    -0.00878167    0.01779867    0.00000000
     atom   14 type  1   force =     0.01121112    0.00646343    0.00000000
     atom   15 type  1   force =    -0.00911544    0.00529403    0.00000000
     atom   16 type  1   force =     0.01104862   -0.01643954    0.00000000
     atom   17 type  1   force =     0.00002354   -0.01057378    0.00000000

     Total force =     0.057315     Total SCF correction =     0.000616


     Computing stress (Cartesian axis) and pressure

          total   stress  (Ry/bohr**3)                   (kbar)     P=   -1.91
  -0.00001951  -0.00000001   0.00000000         -2.87     -0.00      0.00
  -0.00000001  -0.00001952   0.00000000         -0.00     -2.87      0.00
   0.00000000   0.00000000   0.00000001          0.00      0.00      0.00


     number of scf cycles    =   7
     number of bfgs steps    =   6

     enthalpy old            =     -77.1828557717 Ry
     enthalpy new            =     -77.1908107714 Ry

     CASE: enthalpy_new < enthalpy_old

     new trust radius        =       0.2523905371 bohr
     new conv_thr            =       0.0000010000 Ry

     new unit-cell volume =  20528.46105 a.u.^3 (  3042.00404 Ang^3 )
     density =      0.27823 g/cm^3

CELL_PARAMETERS (alat= 25.26072511)
   0.991407523   0.000005374   0.000000000
  -0.495699108   0.858583096   0.000000000
   0.000000000   0.000000000   1.496177267

ATOMIC_POSITIONS (angstrom)
Al       0.000127934   2.550563499   0.000000000
Al       2.296620574   1.224731611   0.000000000
Al       4.370615488   2.576741745   0.000000000
Al       6.626330554   1.281894253   0.000000000
Al      -2.207703394   6.322530440   0.000000000
Al       0.000128411   5.202396756   0.000000000
Al       2.208021941   6.322542620   0.000000000
Al       4.742928220   5.288825127   0.000000000
Al      -4.463307655  10.229443029   0.000000000
Al      -2.214108909   8.923473183   0.000000000
Al       0.000146927  10.201842589   0.000000000
Al       2.214281314   8.923463885   0.000000000
Al       8.881975197   2.576699128   0.000000000
Al      10.955851935   1.224728394   0.000000000
Al       8.509603716   5.288680815   0.000000000
Al       4.463606497  10.229430617   0.000000000
Al       6.626225581   8.550811188   0.000000000



     Writing output data file 15al_planar_2x2_vcr.save/
     NEW-OLD atomic charge density approx. for the potential

     negative rho (up, down):  7.386E-06 0.000E+00
     extrapolated charge   50.64802, renormalised to   51.00000

     total cpu time spent up to now is      742.5 secs

     Self-consistent Calculation

     iteration #  1     ecut=    80.00 Ry     beta= 0.40
     Davidson diagonalization with overlap
     ethr =  1.00E-06,  avg # of iterations = 10.0

     negative rho (up, down):  4.192E-06 0.000E+00

     total cpu time spent up to now is      755.1 secs

     total energy              =     -77.18655062 Ry
     Harris-Foulkes estimate   =     -78.91011739 Ry
     estimated scf accuracy    <       0.01920081 Ry

     iteration #  2     ecut=    80.00 Ry     beta= 0.40
     Davidson diagonalization with overlap
     ethr =  3.76E-05,  avg # of iterations =  8.0

     negative rho (up, down):  3.614E-06 0.000E+00

     total cpu time spent up to now is      763.8 secs

     total energy              =     -77.18873567 Ry
     Harris-Foulkes estimate   =     -77.21619606 Ry
     estimated scf accuracy    <       0.16851152 Ry

     iteration #  3     ecut=    80.00 Ry     beta= 0.40
     Davidson diagonalization with overlap
     ethr =  3.76E-05,  avg # of iterations =  4.0

     negative rho (up, down):  2.986E-06 0.000E+00

     total cpu time spent up to now is      770.9 secs

     total energy              =     -77.19958785 Ry
     Harris-Foulkes estimate   =     -77.20020132 Ry
     estimated scf accuracy    <       0.00671106 Ry

     iteration #  4     ecut=    80.00 Ry     beta= 0.40
     Davidson diagonalization with overlap
     ethr =  1.32E-05,  avg # of iterations =  2.0

     negative rho (up, down):  1.395E-06 0.000E+00

     total cpu time spent up to now is      776.8 secs

     total energy              =     -77.19875800 Ry
     Harris-Foulkes estimate   =     -77.19976692 Ry
     estimated scf accuracy    <       0.00455593 Ry

     iteration #  5     ecut=    80.00 Ry     beta= 0.40
     Davidson diagonalization with overlap
     ethr =  8.93E-06,  avg # of iterations =  3.0

     negative rho (up, down):  2.274E-07 0.000E+00

     total cpu time spent up to now is      782.0 secs

     total energy              =     -77.19865975 Ry
     Harris-Foulkes estimate   =     -77.19923902 Ry
     estimated scf accuracy    <       0.00237693 Ry

     iteration #  6     ecut=    80.00 Ry     beta= 0.40
     Davidson diagonalization with overlap
     ethr =  4.66E-06,  avg # of iterations =  4.0

     negative rho (up, down):  1.688E-07 0.000E+00

     total cpu time spent up to now is      788.1 secs

     total energy              =     -77.19908163 Ry
     Harris-Foulkes estimate   =     -77.19914511 Ry
     estimated scf accuracy    <       0.00038445 Ry

     iteration #  7     ecut=    80.00 Ry     beta= 0.40
     Davidson diagonalization with overlap
     ethr =  7.54E-07,  avg # of iterations =  4.0

     negative rho (up, down):  1.229E-07 0.000E+00

     total cpu time spent up to now is      795.4 secs

     total energy              =     -77.19910058 Ry
     Harris-Foulkes estimate   =     -77.19918458 Ry
     estimated scf accuracy    <       0.00053939 Ry

     iteration #  8     ecut=    80.00 Ry     beta= 0.40
     Davidson diagonalization with overlap
     ethr =  7.54E-07,  avg # of iterations =  1.0

     negative rho (up, down):  5.737E-08 0.000E+00

     total cpu time spent up to now is      800.7 secs

     total energy              =     -77.19908778 Ry
     Harris-Foulkes estimate   =     -77.19912021 Ry
     estimated scf accuracy    <       0.00018127 Ry

     iteration #  9     ecut=    80.00 Ry     beta= 0.40
     Davidson diagonalization with overlap
     ethr =  3.55E-07,  avg # of iterations =  3.0

     negative rho (up, down):  3.238E-08 0.000E+00

     total cpu time spent up to now is      806.4 secs

     total energy              =     -77.19909398 Ry
     Harris-Foulkes estimate   =     -77.19910142 Ry
     estimated scf accuracy    <       0.00003584 Ry

     iteration # 10     ecut=    80.00 Ry     beta= 0.40
     Davidson diagonalization with overlap
     ethr =  7.03E-08,  avg # of iterations =  5.0

     negative rho (up, down):  3.341E-08 0.000E+00

     total cpu time spent up to now is      813.4 secs

     total energy              =     -77.19910448 Ry
     Harris-Foulkes estimate   =     -77.19910667 Ry
     estimated scf accuracy    <       0.00001910 Ry

     iteration # 11     ecut=    80.00 Ry     beta= 0.40
     Davidson diagonalization with overlap
     ethr =  3.75E-08,  avg # of iterations =  1.0

     negative rho (up, down):  1.362E-08 0.000E+00

     total cpu time spent up to now is      818.4 secs

     total energy              =     -77.19910345 Ry
     Harris-Foulkes estimate   =     -77.19910544 Ry
     estimated scf accuracy    <       0.00001244 Ry

     iteration # 12     ecut=    80.00 Ry     beta= 0.40
     Davidson diagonalization with overlap
     ethr =  2.44E-08,  avg # of iterations =  3.0

     total cpu time spent up to now is      823.9 secs

     total energy              =     -77.19910389 Ry
     Harris-Foulkes estimate   =     -77.19910449 Ry
     estimated scf accuracy    <       0.00000416 Ry

     iteration # 13     ecut=    80.00 Ry     beta= 0.40
     Davidson diagonalization with overlap
     c_bands:  1 eigenvalues not converged
     ethr =  8.16E-09,  avg # of iterations = 20.0

     negative rho (up, down):  1.377E-08 0.000E+00

     total cpu time spent up to now is      832.0 secs

     total energy              =     -77.19920172 Ry
     Harris-Foulkes estimate   =     -77.19919994 Ry
     estimated scf accuracy    <       0.00046850 Ry

     iteration # 14     ecut=    80.00 Ry     beta= 0.40
     Davidson diagonalization with overlap
     ethr =  8.16E-09,  avg # of iterations =  1.0

     total cpu time spent up to now is      837.0 secs

     total energy              =     -77.19920059 Ry
     Harris-Foulkes estimate   =     -77.19920178 Ry
     estimated scf accuracy    <       0.00047756 Ry

     iteration # 15     ecut=    80.00 Ry     beta= 0.40
     Davidson diagonalization with overlap
     ethr =  8.16E-09,  avg # of iterations =  1.0

     total cpu time spent up to now is      842.2 secs

     total energy              =     -77.19919539 Ry
     Harris-Foulkes estimate   =     -77.19920064 Ry
     estimated scf accuracy    <       0.00047872 Ry

     iteration # 16     ecut=    80.00 Ry     beta= 0.40
     Davidson diagonalization with overlap
     ethr =  8.16E-09,  avg # of iterations =  1.0

     total cpu time spent up to now is      847.4 secs

     total energy              =     -77.19919296 Ry
     Harris-Foulkes estimate   =     -77.19919555 Ry
     estimated scf accuracy    <       0.00044987 Ry

     iteration # 17     ecut=    80.00 Ry     beta= 0.40
     Davidson diagonalization with overlap
     ethr =  8.16E-09,  avg # of iterations =  1.0

     total cpu time spent up to now is      852.3 secs

     total energy              =     -77.19918285 Ry
     Harris-Foulkes estimate   =     -77.19919301 Ry
     estimated scf accuracy    <       0.00044218 Ry

     iteration # 18     ecut=    80.00 Ry     beta= 0.40
     Davidson diagonalization with overlap
     ethr =  8.16E-09,  avg # of iterations =  1.0

     total cpu time spent up to now is      857.4 secs

     total energy              =     -77.19917337 Ry
     Harris-Foulkes estimate   =     -77.19918310 Ry
     estimated scf accuracy    <       0.00039640 Ry

     iteration # 19     ecut=    80.00 Ry     beta= 0.40
     Davidson diagonalization with overlap
     ethr =  8.16E-09,  avg # of iterations =  1.0

     total cpu time spent up to now is      862.6 secs

     total energy              =     -77.19916129 Ry
     Harris-Foulkes estimate   =     -77.19917363 Ry
     estimated scf accuracy    <       0.00035600 Ry

     iteration # 20     ecut=    80.00 Ry     beta= 0.40
     Davidson diagonalization with overlap
     ethr =  8.16E-09,  avg # of iterations =  4.0

     total cpu time spent up to now is      868.1 secs

     total energy              =     -77.19914838 Ry
     Harris-Foulkes estimate   =     -77.19916179 Ry
     estimated scf accuracy    <       0.00029320 Ry

     iteration # 21     ecut=    80.00 Ry     beta= 0.40
     Davidson diagonalization with overlap
     ethr =  8.16E-09,  avg # of iterations =  3.0

     negative rho (up, down):  2.531E-08 0.000E+00

     total cpu time spent up to now is      874.1 secs

     total energy              =     -77.19907834 Ry
     Harris-Foulkes estimate   =     -77.19914932 Ry
     estimated scf accuracy    <       0.00022901 Ry

     iteration # 22     ecut=    80.00 Ry     beta= 0.40
     Davidson diagonalization with overlap
     ethr =  8.16E-09,  avg # of iterations = 12.0

     total cpu time spent up to now is      884.7 secs

     total energy              =     -77.19910094 Ry
     Harris-Foulkes estimate   =     -77.19910518 Ry
     estimated scf accuracy    <       0.00002797 Ry

     iteration # 23     ecut=    80.00 Ry     beta= 0.40
     Davidson diagonalization with overlap
     ethr =  8.16E-09,  avg # of iterations =  5.0

     total cpu time spent up to now is      891.3 secs

     End of self-consistent calculation

          k = 0.0000 0.0000 0.0000 (252395 PWs)   bands (ev):

   -10.0308  -9.1749  -9.1704  -9.1069  -8.9876  -8.9862  -8.4886  -7.5047
    -7.4386  -7.4355  -7.0309  -5.8333  -5.8020  -5.8010  -5.6941  -5.6879
    -4.9030  -4.9012  -4.4667  -4.0161  -3.3584  -3.1880  -3.1855  -3.1423
    -3.1396  -3.0846  -3.0377  -3.0374  -3.0240  -2.6944  -2.6411

     the Fermi energy is    -3.0596 ev

!    total energy              =     -77.19910250 Ry
     Harris-Foulkes estimate   =     -77.19910315 Ry
     estimated scf accuracy    <       0.00000093 Ry

     The total energy is the sum of the following terms:

     one-electron contribution =    -271.23575236 Ry
     hartree contribution      =     140.13635760 Ry
     xc contribution           =     -33.38053174 Ry
     ewald contribution        =      87.39580650 Ry
     smearing contrib. (-TS)   =      -0.11498249 Ry

     convergence has been achieved in  23 iterations

     Forces acting on atoms (cartesian axes, Ry/au):

     atom    1 type  1   force =    -0.00090625    0.00029950    0.00000000
     atom    2 type  1   force =    -0.01649684    0.00957662    0.00000000
     atom    3 type  1   force =     0.01390632    0.02534735    0.00000000
     atom    4 type  1   force =     0.00112135    0.00657499    0.00000000
     atom    5 type  1   force =    -0.02944506    0.00084343    0.00000000
     atom    6 type  1   force =     0.00031069   -0.02068934    0.00000000
     atom    7 type  1   force =     0.02902070    0.00019989    0.00000000
     atom    8 type  1   force =     0.00320932    0.00145621    0.00000000
     atom    9 type  1   force =    -0.01496546   -0.02481634    0.00000000
     atom   10 type  1   force =    -0.00495933   -0.00395447    0.00000000
[...]
     estimated scf accuracy    <       0.00000005 Ry

     iteration #  2     ecut=    80.00 Ry     beta= 0.40
     Davidson diagonalization with overlap
     ethr =  1.06E-10,  avg # of iterations =  3.0

     total cpu time spent up to now is    15427.8 secs

     total energy              =     -78.02018591 Ry
     Harris-Foulkes estimate   =     -78.02018594 Ry
     estimated scf accuracy    <       0.00000009 Ry

     iteration #  3     ecut=    80.00 Ry     beta= 0.40
     Davidson diagonalization with overlap
     ethr =  1.06E-10,  avg # of iterations =  3.0

     total cpu time spent up to now is    15433.7 secs

     End of self-consistent calculation

          k = 0.0000 0.0000 0.0000 (252395 PWs)   bands (ev):

   -12.3574 -11.0522 -10.9493 -10.9493 -10.4455 -10.4454  -9.7221  -7.7030
    -7.6810  -7.6810  -7.5807  -7.4391  -7.4390  -6.1812  -5.8995  -5.8995
    -5.8521  -5.6219  -5.6219  -5.2763  -3.9444  -3.8838  -3.8838  -3.5401
    -3.5401  -3.1418  -1.9886  -1.9885  -1.8400  -1.7652  -1.7652

     the Fermi energy is    -3.0828 ev

!    total energy              =     -78.02018592 Ry
     Harris-Foulkes estimate   =     -78.02018592 Ry
     estimated scf accuracy    <          3.0E-10 Ry

     The total energy is the sum of the following terms:

     one-electron contribution =    -388.34861187 Ry
     hartree contribution      =     198.01245592 Ry
     xc contribution           =     -35.07292552 Ry
     ewald contribution        =     147.36961939 Ry
     smearing contrib. (-TS)   =       0.01927615 Ry

     convergence has been achieved in   3 iterations

     Forces acting on atoms (cartesian axes, Ry/au):

     atom    1 type  1   force =    -0.00000447   -0.00000558    0.00000000
     atom    2 type  1   force =    -0.00000039    0.00000216    0.00000000
     atom    3 type  1   force =    -0.00000187   -0.00000035    0.00000000
     atom    4 type  1   force =     0.00000030   -0.00000278    0.00000000
     atom    5 type  1   force =    -0.00000248    0.00000046    0.00000000
     atom    6 type  1   force =    -0.00000178    0.00000077    0.00000000
     atom    7 type  1   force =     0.00000080    0.00000892    0.00000000
     atom    8 type  1   force =    -0.00000044   -0.00000545    0.00000000
     atom    9 type  1   force =     0.00000546    0.00000107    0.00000000
     atom   10 type  1   force =    -0.00000375    0.00000461    0.00000000
     atom   11 type  1   force =    -0.00000016   -0.00001213    0.00000000
     atom   12 type  1   force =    -0.00000239    0.00000359    0.00000000
     atom   13 type  1   force =     0.00000808    0.00000190    0.00000000
     atom   14 type  1   force =    -0.00000076    0.00000162    0.00000000
     atom   15 type  1   force =     0.00000109    0.00000271    0.00000000
     atom   16 type  1   force =     0.00000345    0.00000155    0.00000000
     atom   17 type  1   force =    -0.00000070   -0.00000307    0.00000000

     Total force =     0.000023     Total SCF correction =     0.000017
     SCF correction compared to forces is large: reduce conv_thr to get better values


     Computing stress (Cartesian axis) and pressure

          total   stress  (Ry/bohr**3)                   (kbar)     P=   -0.00
  -0.00000001   0.00000000   0.00000000         -0.00      0.00      0.00
   0.00000000  -0.00000001   0.00000000          0.00     -0.00      0.00
   0.00000000   0.00000000  -0.00000002          0.00      0.00     -0.00


     bfgs converged in 184 scf cycles and 180 bfgs steps
     (criteria: energy <  1.0E-05 Ry, force <  1.0E-04Ry/Bohr, cell <  5.0E-05kbar)

     End of BFGS Geometry Optimization

     Final enthalpy =     -78.0201859227 Ry
Begin final coordinates
     new unit-cell volume =  14242.40733 a.u.^3 (  2110.50699 Ang^3 )
     density =      0.40103 g/cm^3

CELL_PARAMETERS (alat= 25.26072511)
   0.825783226  -0.000046308   0.000000000
  -0.412852837   0.715172678   0.000000000
   0.000000000   0.000000000   1.496177267

ATOMIC_POSITIONS (angstrom)
Al       1.681939530   1.863753176   0.000000000
Al       3.698701659   0.375269974   0.000000000
Al       4.030910638   2.993280340   0.000000000
Al       6.051390839   1.482438075   0.000000000
Al      -2.443530915   5.007726901   0.000000000
Al      -0.324439898   3.436552210   0.000000000
Al       0.034479579   5.960534737   0.000000000
Al       2.095806885   4.486190633   0.000000000
Al      -4.258290590   8.728986485   0.000000000
Al      -2.118229413   7.430037561   0.000000000
Al       0.315102316   8.451382968   0.000000000
Al       2.578923420   6.942944581   0.000000000
Al       8.348817401   2.484776423   0.000000000
Al      10.412999273   0.815145847   0.000000000
Al       6.225842719   4.197142180   0.000000000
Al       2.633773446   9.445742367   0.000000000
Al       5.195024815   6.622820891   0.000000000
End final coordinates



     Writing output data file 15al_planar_2x2_vcr.save/

     A final scf calculation at the relaxed structure.
     The G-vectors are recalculated for the final unit cell
     Results may differ from those at the preceding step.
 
     Parallelization info
     --------------------
     sticks:   dense  smooth     PW     G-vecs:    dense   smooth      PW
     Min        1199    1199    300               172087   172087   21529
     Max        1201    1201    302               172091   172091   21532
     Sum        9601    9601   2407              1376711  1376711  172241
 


     bravais-lattice index     =            4
     lattice parameter (alat)  =      25.2607  a.u.
     unit-cell volume          =   14242.4073 (a.u.)^3
     number of atoms/cell      =           17
     number of atomic types    =            1
     number of electrons       =        51.00
     number of Kohn-Sham states=           31
     kinetic-energy cutoff     =      80.0000  Ry
     charge density cutoff     =     320.0000  Ry
     convergence threshold     =      1.0E-08
     mixing beta               =       0.4000
     number of iterations used =            8  plain     mixing
     Exchange-correlation      = PBE ( 1  4  3  4 0 0)

     celldm(1)=  25.260725  celldm(2)=   0.000000  celldm(3)=   1.496177
     celldm(4)=   0.000000  celldm(5)=   0.000000  celldm(6)=   0.000000

     crystal axes: (cart. coord. in units of alat)
               a(1) = (   0.825783  -0.000046   0.000000 )  
               a(2) = (  -0.412853   0.715173   0.000000 )  
               a(3) = (   0.000000   0.000000   1.496177 )  

     reciprocal axes: (cart. coord. in units 2 pi/alat)
               b(1) = (  1.211011  0.699089  0.000000 )  
               b(2) = (  0.000078  1.398309  0.000000 )  
               b(3) = (  0.000000  0.000000  0.668370 )  


     PseudoPot. # 1 for Al read from file:
     ./Al.upf
     MD5 check sum: 4974d48a734c9d7d1eb6780a1419d19d
     Pseudo is Norm-conserving + core correction, Zval =  3.0
     Generated using ONCVPSP code by D. R. Hamann
     Using radial grid of 1876 points,  6 beta functions with: 
                l(1) =   0
                l(2) =   0
                l(3) =   1
                l(4) =   1
                l(5) =   2
                l(6) =   2

     atomic species   valence    mass     pseudopotential
        Al             3.00    29.98200     Al( 1.00)

      2 Sym. Ops. (no inversion) found



   Cartesian axes

     site n.     atom                  positions (alat units)
         1           Al  tau(   1) = (   0.1258240   0.1394253   0.0000000  )
         2           Al  tau(   2) = (   0.2766957   0.0280735   0.0000000  )
         3           Al  tau(   3) = (   0.3015478   0.2239239   0.0000000  )
         4           Al  tau(   4) = (   0.4526977   0.1108995   0.0000000  )
         5           Al  tau(   5) = (  -0.1827978   0.3746224   0.0000000  )
         6           Al  tau(   6) = (  -0.0242710   0.2570846   0.0000000  )
         7           Al  tau(   7) = (   0.0025794   0.4459008   0.0000000  )
         8           Al  tau(   8) = (   0.1567849   0.3356068   0.0000000  )
         9           Al  tau(   9) = (  -0.3185579   0.6530056   0.0000000  )
        10           Al  tau(  10) = (  -0.1584623   0.5558327   0.0000000  )
        11           Al  tau(  11) = (   0.0235724   0.6322384   0.0000000  )
        12           Al  tau(  12) = (   0.1929263   0.5193938   0.0000000  )
        13           Al  tau(  13) = (   0.6245655   0.1858833   0.0000000  )
        14           Al  tau(  14) = (   0.7789846   0.0609801   0.0000000  )
        15           Al  tau(  15) = (   0.4657482   0.3139834   0.0000000  )
        16           Al  tau(  16) = (   0.1970296   0.7066252   0.0000000  )
        17           Al  tau(  17) = (   0.3886339   0.4954457   0.0000000  )

     number of k points=     1  Methfessel-Paxton smearing, width (Ry)=  0.0500
                       cart. coord. in units 2pi/alat
        k(    1) = (   0.0000000   0.0000000   0.0000000), wk =   2.0000000

     Dense  grid:  1376711 G-vectors     FFT dimensions: ( 120, 120, 216)

     Estimated max dynamical RAM per process >     304.57 MB

     Estimated total dynamical RAM >       2.38 GB

     Initial potential from superposition of free atoms

     starting charge   50.95840, renormalised to   51.00000

     negative rho (up, down):  3.769E-05 0.000E+00
     Starting wfcs are   68 randomized atomic wfcs

     total cpu time spent up to now is    15460.9 secs

     Self-consistent Calculation

     iteration #  1     ecut=    80.00 Ry     beta= 0.40
     Davidson diagonalization with overlap
     ethr =  1.00E-06,  avg # of iterations = 17.0

     negative rho (up, down):  5.983E-06 0.000E+00

     total cpu time spent up to now is    15475.6 secs

     total energy              =     -77.97209730 Ry
     Harris-Foulkes estimate   =     -78.10834024 Ry
     estimated scf accuracy    <       0.36209574 Ry

     iteration #  2     ecut=    80.00 Ry     beta= 0.40
     Davidson diagonalization with overlap
     ethr =  7.10E-04,  avg # of iterations =  4.0

     negative rho (up, down):  3.890E-06 0.000E+00

     total cpu time spent up to now is    15480.8 secs

     total energy              =     -77.97740257 Ry
     Harris-Foulkes estimate   =     -78.06584395 Ry
     estimated scf accuracy    <       0.27932732 Ry

     iteration #  3     ecut=    80.00 Ry     beta= 0.40
     Davidson diagonalization with overlap
     ethr =  5.48E-04,  avg # of iterations =  3.0

     negative rho (up, down):  8.187E-07 0.000E+00

     total cpu time spent up to now is    15485.7 secs

     total energy              =     -78.01788541 Ry
     Harris-Foulkes estimate   =     -78.02825146 Ry
     estimated scf accuracy    <       0.04001838 Ry

     iteration #  4     ecut=    80.00 Ry     beta= 0.40
     Davidson diagonalization with overlap
     ethr =  7.85E-05,  avg # of iterations =  3.0

     negative rho (up, down):  2.950E-07 0.000E+00

     total cpu time spent up to now is    15490.6 secs

     total energy              =     -78.01880586 Ry
     Harris-Foulkes estimate   =     -78.02142637 Ry
     estimated scf accuracy    <       0.00957793 Ry

     iteration #  5     ecut=    80.00 Ry     beta= 0.40
     Davidson diagonalization with overlap
     ethr =  1.88E-05,  avg # of iterations =  4.0

     negative rho (up, down):  2.350E-08 0.000E+00

     total cpu time spent up to now is    15495.3 secs

     total energy              =     -78.01942318 Ry
     Harris-Foulkes estimate   =     -78.02000773 Ry
     estimated scf accuracy    <       0.00127038 Ry

     iteration #  6     ecut=    80.00 Ry     beta= 0.40
     Davidson diagonalization with overlap
     ethr =  2.49E-06,  avg # of iterations =  5.0

     negative rho (up, down):  1.088E-08 0.000E+00

     total cpu time spent up to now is    15502.2 secs

     total energy              =     -78.01972719 Ry
     Harris-Foulkes estimate   =     -78.02030534 Ry
     estimated scf accuracy    <       0.00159208 Ry

     iteration #  7     ecut=    80.00 Ry     beta= 0.40
     Davidson diagonalization with overlap
     ethr =  2.49E-06,  avg # of iterations =  2.0

     total cpu time spent up to now is    15507.4 secs

     total energy              =     -78.01995087 Ry
     Harris-Foulkes estimate   =     -78.02000481 Ry
     estimated scf accuracy    <       0.00018619 Ry

     iteration #  8     ecut=    80.00 Ry     beta= 0.40
     Davidson diagonalization with overlap
     ethr =  3.65E-07,  avg # of iterations =  3.0

     total cpu time spent up to now is    15512.3 secs

     total energy              =     -78.01997053 Ry
     Harris-Foulkes estimate   =     -78.01998417 Ry
     estimated scf accuracy    <       0.00003062 Ry

     iteration #  9     ecut=    80.00 Ry     beta= 0.40
     Davidson diagonalization with overlap
     ethr =  6.00E-08,  avg # of iterations =  3.0

     total cpu time spent up to now is    15517.0 secs

     total energy              =     -78.01997560 Ry
     Harris-Foulkes estimate   =     -78.01997639 Ry
     estimated scf accuracy    <       0.00000215 Ry

     iteration # 10     ecut=    80.00 Ry     beta= 0.40
     Davidson diagonalization with overlap
     ethr =  4.21E-09,  avg # of iterations =  4.0

     total cpu time spent up to now is    15523.0 secs

     total energy              =     -78.01997634 Ry
     Harris-Foulkes estimate   =     -78.01997647 Ry
     estimated scf accuracy    <       0.00000033 Ry

     iteration # 11     ecut=    80.00 Ry     beta= 0.40
     Davidson diagonalization with overlap
     ethr =  6.51E-10,  avg # of iterations =  3.0

     total cpu time spent up to now is    15528.6 secs

     total energy              =     -78.01997632 Ry
     Harris-Foulkes estimate   =     -78.01997636 Ry
     estimated scf accuracy    <       0.00000021 Ry

     iteration # 12     ecut=    80.00 Ry     beta= 0.40
     Davidson diagonalization with overlap
     ethr =  4.18E-10,  avg # of iterations =  1.0

     total cpu time spent up to now is    15533.0 secs

     total energy              =     -78.01997625 Ry
     Harris-Foulkes estimate   =     -78.01997629 Ry
     estimated scf accuracy    <       0.00000010 Ry

     iteration # 13     ecut=    80.00 Ry     beta= 0.40
     Davidson diagonalization with overlap
     ethr =  1.94E-10,  avg # of iterations =  3.0

     total cpu time spent up to now is    15539.1 secs

     total energy              =     -78.01997622 Ry
     Harris-Foulkes estimate   =     -78.01997624 Ry
     estimated scf accuracy    <       0.00000006 Ry

     iteration # 14     ecut=    80.00 Ry     beta= 0.40
     Davidson diagonalization with overlap
     ethr =  1.14E-10,  avg # of iterations =  3.0

     total cpu time spent up to now is    15544.2 secs

     End of self-consistent calculation

          k = 0.0000 0.0000 0.0000 (172241 PWs)   bands (ev):

   -12.3574 -11.0522 -10.9493 -10.9493 -10.4455 -10.4454  -9.7221  -7.7029
    -7.6809  -7.6809  -7.5807  -7.4390  -7.4390  -6.1811  -5.8995  -5.8995
    -5.8521  -5.6219  -5.6219  -5.2763  -3.9444  -3.8839  -3.8838  -3.5402
    -3.5401  -3.1419  -1.9886  -1.9885  -1.8400  -1.7652  -1.7652

     the Fermi energy is    -3.0828 ev

!    total energy              =     -78.01997621 Ry
     Harris-Foulkes estimate   =     -78.01997621 Ry
     estimated scf accuracy    <          3.1E-09 Ry

     The total energy is the sum of the following terms:

     one-electron contribution =    -388.34832602 Ry
     hartree contribution      =     198.01244329 Ry
     xc contribution           =     -35.07298696 Ry
     ewald contribution        =     147.36961939 Ry
     smearing contrib. (-TS)   =       0.01927409 Ry

     convergence has been achieved in  14 iterations

     Forces acting on atoms (cartesian axes, Ry/au):

     atom    1 type  1   force =    -0.00000176   -0.00000681    0.00000000
     atom    2 type  1   force =    -0.00000544    0.00000348    0.00000000
     atom    3 type  1   force =    -0.00000590    0.00000482    0.00000000
     atom    4 type  1   force =     0.00000372   -0.00000016    0.00000000
     atom    5 type  1   force =    -0.00000196    0.00000751    0.00000000
     atom    6 type  1   force =    -0.00000132    0.00000082    0.00000000
     atom    7 type  1   force =     0.00000243    0.00001202    0.00000000
     atom    8 type  1   force =     0.00000497   -0.00000831    0.00000000
     atom    9 type  1   force =     0.00000734    0.00000211    0.00000000
     atom   10 type  1   force =    -0.00000547   -0.00000181    0.00000000
     atom   11 type  1   force =    -0.00000004   -0.00001865    0.00000000
     atom   12 type  1   force =    -0.00000407    0.00000312    0.00000000
     atom   13 type  1   force =     0.00000521    0.00000267    0.00000000
     atom   14 type  1   force =    -0.00000774   -0.00000142    0.00000000
     atom   15 type  1   force =     0.00000299    0.00000202    0.00000000
     atom   16 type  1   force =     0.00000877    0.00000187    0.00000000
     atom   17 type  1   force =    -0.00000171   -0.00000329    0.00000000

     Total force =     0.000034     Total SCF correction =     0.000055
     SCF correction compared to forces is large: reduce conv_thr to get better values


     Computing stress (Cartesian axis) and pressure

          total   stress  (Ry/bohr**3)                   (kbar)     P=    0.00
   0.00000004   0.00000000   0.00000000          0.01      0.00      0.00
   0.00000000   0.00000004   0.00000000          0.00      0.01      0.00
   0.00000000   0.00000000  -0.00000002          0.00      0.00     -0.00


     Writing output data file 15al_planar_2x2_vcr.save/
 
     init_run     :     15.00s CPU     16.76s WALL (       2 calls)
     electrons    :   9593.04s CPU   9929.49s WALL (     185 calls)
     update_pot   :   1659.46s CPU   1676.29s WALL (     183 calls)
     forces       :   1080.05s CPU   1110.26s WALL (     185 calls)
     stress       :   2680.91s CPU   2764.28s WALL (     185 calls)

     Called by init_run:
     wfcinit      :      4.86s CPU      6.29s WALL (       2 calls)
     potinit      :      4.00s CPU      4.18s WALL (       2 calls)
     hinit0       :      4.74s CPU      4.83s WALL (       2 calls)

     Called by electrons:
     c_bands      :   7404.65s CPU   7549.88s WALL (    1465 calls)
     sum_band     :   1211.12s CPU   1225.41s WALL (    1465 calls)
     v_of_rho     :    852.21s CPU    975.64s WALL (    1595 calls)
     mix_rho      :    164.38s CPU    208.19s WALL (    1465 calls)

     Called by c_bands:
     init_us_2    :    138.65s CPU    142.40s WALL (    2932 calls)
     cegterg      :   6182.95s CPU   6320.62s WALL (    1465 calls)

     Called by sum_band:

     Called by *egterg:
     h_psi        :   5621.46s CPU   5714.07s WALL (    7268 calls)
     g_psi        :     24.08s CPU     24.19s WALL (    5801 calls)
     cdiaghg      :     16.43s CPU     16.57s WALL (    7028 calls)

     Called by h_psi:
     h_psi:pot    :   5606.70s CPU   5672.73s WALL (    7268 calls)
     h_psi:calbec :    492.41s CPU    497.99s WALL (    7268 calls)
     vloc_psi     :   4604.09s CPU   4663.37s WALL (    7268 calls)
     add_vuspsi   :    510.12s CPU    511.32s WALL (    7268 calls)

     General routines
     calbec       :    598.04s CPU    605.30s WALL (    8193 calls)
     fft          :    731.47s CPU    830.04s WALL (   20813 calls)
     ffts         :     53.12s CPU     53.69s WALL (    1465 calls)
     fftw         :   4992.05s CPU   5056.98s WALL (  315189 calls)
 
     Parallel routines
     fft_scatt_xy :    767.39s CPU    777.71s WALL (  337467 calls)
     fft_scatt_yz :   2777.74s CPU   2837.48s WALL (  337467 calls)
 
     PWSCF        :     4h10m CPU       10h 4m WALL

      19h
 
   This run was terminated on:  22: 7:58  25Nov2020            

=------------------------------------------------------------------------------=
   JOB DONE.
=------------------------------------------------------------------------------=
