
     Program PWSCF v.6.3MaX starts on 25Nov2020 at 16: 9:17 

     This program is part of the open-source Quantum ESPRESSO suite
     for quantum simulation of materials; please cite
         "P. Giannozzi et al., J. Phys.:Condens. Matter 21 395502 (2009);
         "P. Giannozzi et al., J. Phys.:Condens. Matter 29 465901 (2017);
          URL http://www.quantum-espresso.org", 
     in publications or presentations arising from this work. More details at
     http://www.quantum-espresso.org/quote

     Parallel version (MPI), running on     8 processors

     MPI processes distributed on     4 nodes
     R & G space division:  proc/nbgrp/npool/nimage =       8
     Waiting for input...
     Reading input from standard input

     Current dimensions of program PWSCF are:
     Max number of different atomic species (ntypx) = 10
     Max number of k-points (npk) =  40000
     Max angular momentum in pseudopotentials (lmaxx) =  3

     Subspace diagonalization in iterative solution of the eigenvalue problem:
     a serial algorithm will be used

 
     Parallelization info
     --------------------
     sticks:   dense  smooth     PW     G-vecs:    dense   smooth      PW
     Min        1758    1758    438               252392   252392   31546
     Max        1759    1759    439               252397   252397   31551
     Sum       14071   14071   3505              2019149  2019149  252395
 


     bravais-lattice index     =            4
     lattice parameter (alat)  =      25.2607  a.u.
     unit-cell volume          =   20885.8003 (a.u.)^3
     number of atoms/cell      =           17
     number of atomic types    =            1
     number of electrons       =        51.00
     number of Kohn-Sham states=           31
     kinetic-energy cutoff     =      80.0000  Ry
     charge density cutoff     =     320.0000  Ry
     convergence threshold     =      1.0E-06
     mixing beta               =       0.4000
     number of iterations used =            8  plain     mixing
     Exchange-correlation      = PBE ( 1  4  3  4 0 0)
     nstep                     =          300


     celldm(1)=  25.260725  celldm(2)=   0.000000  celldm(3)=   1.496177
     celldm(4)=   0.000000  celldm(5)=   0.000000  celldm(6)=   0.000000

     crystal axes: (cart. coord. in units of alat)
               a(1) = (   1.000000   0.000000   0.000000 )  
               a(2) = (  -0.500000   0.866025   0.000000 )  
               a(3) = (   0.000000   0.000000   1.496177 )  

     reciprocal axes: (cart. coord. in units 2 pi/alat)
               b(1) = (  1.000000  0.577350  0.000000 )  
               b(2) = (  0.000000  1.154701  0.000000 )  
               b(3) = (  0.000000  0.000000  0.668370 )  


     PseudoPot. # 1 for Al read from file:
     ./Al.upf
     MD5 check sum: 4974d48a734c9d7d1eb6780a1419d19d
     Pseudo is Norm-conserving + core correction, Zval =  3.0
     Generated using ONCVPSP code by D. R. Hamann
     Using radial grid of 1876 points,  6 beta functions with: 
                l(1) =   0
                l(2) =   0
                l(3) =   1
                l(4) =   1
                l(5) =   2
                l(6) =   2

     atomic species   valence    mass     pseudopotential
        Al             3.00    29.98200     Al( 1.00)

      2 Sym. Ops. (no inversion) found



   Cartesian axes

     site n.     atom                  positions (alat units)
         1           Al  tau(   1) = (   0.0000000   0.1924524   0.0000000  )
         2           Al  tau(   2) = (   0.1666687   0.0962261   0.0000000  )
         3           Al  tau(   3) = (   0.3333348   0.1924537   0.0000000  )
         4           Al  tau(   4) = (   0.5000036   0.0962275   0.0000000  )
         5           Al  tau(   5) = (  -0.1666663   0.4811295   0.0000000  )
         6           Al  tau(   6) = (   0.0000024   0.3849033   0.0000000  )
         7           Al  tau(   7) = (   0.1666686   0.4811309   0.0000000  )
         8           Al  tau(   8) = (   0.3333373   0.3849047   0.0000000  )
         9           Al  tau(   9) = (  -0.1666639   0.6735805   0.0000000  )
        10           Al  tau(  10) = (   0.0000023   0.7698081   0.0000000  )
        11           Al  tau(  11) = (   0.1666710   0.6735818   0.0000000  )
        12           Al  tau(  12) = (   0.6666697   0.1924551   0.0000000  )
        13           Al  tau(  13) = (   0.8333384   0.0962289   0.0000000  )
        14           Al  tau(  14) = (   0.5000035   0.4811323   0.0000000  )
        15           Al  tau(  15) = (   0.6666722   0.3849060   0.0000000  )
        16           Al  tau(  16) = (   0.3333372   0.7698094   0.0000000  )
        17           Al  tau(  17) = (   0.5000059   0.6735832   0.0000000  )

     number of k points=     1  Methfessel-Paxton smearing, width (Ry)=  0.0500
                       cart. coord. in units 2pi/alat
        k(    1) = (   0.0000000   0.0000000   0.0000000), wk =   2.0000000

     Dense  grid:  2019149 G-vectors     FFT dimensions: ( 144, 144, 216)

     Estimated max dynamical RAM per process >     437.36 MB

     Estimated total dynamical RAM >       3.42 GB

     Initial potential from superposition of free atoms

     starting charge   50.95840, renormalised to   51.00000

     negative rho (up, down):  5.196E-05 0.000E+00
     Starting wfcs are   68 randomized atomic wfcs

     total cpu time spent up to now is       15.5 secs

     Self-consistent Calculation

     iteration #  1     ecut=    80.00 Ry     beta= 0.40
     Davidson diagonalization with overlap
     ethr =  1.00E-02,  avg # of iterations =  2.0

     total cpu time spent up to now is       22.9 secs

     total energy              =     -77.03490516 Ry
     Harris-Foulkes estimate   =     -77.31745741 Ry
     estimated scf accuracy    <       0.79233565 Ry

     iteration #  2     ecut=    80.00 Ry     beta= 0.40
     Davidson diagonalization with overlap
     ethr =  1.55E-03,  avg # of iterations =  4.0

     total cpu time spent up to now is       29.7 secs

     total energy              =     -77.00217700 Ry
     Harris-Foulkes estimate   =     -77.25528291 Ry
     estimated scf accuracy    <       0.82447455 Ry

     iteration #  3     ecut=    80.00 Ry     beta= 0.40
     Davidson diagonalization with overlap
     ethr =  1.55E-03,  avg # of iterations =  3.0

     total cpu time spent up to now is       36.2 secs

     total energy              =     -77.12788931 Ry
     Harris-Foulkes estimate   =     -77.18837294 Ry
     estimated scf accuracy    <       0.28024388 Ry

     iteration #  4     ecut=    80.00 Ry     beta= 0.40
     Davidson diagonalization with overlap
     ethr =  5.49E-04,  avg # of iterations =  2.0

     total cpu time spent up to now is       42.0 secs

     total energy              =     -77.14946060 Ry
     Harris-Foulkes estimate   =     -77.16565463 Ry
     estimated scf accuracy    <       0.06930086 Ry

     iteration #  5     ecut=    80.00 Ry     beta= 0.40
     Davidson diagonalization with overlap
     ethr =  1.36E-04,  avg # of iterations =  3.0

     total cpu time spent up to now is       47.8 secs

     total energy              =     -77.15915069 Ry
     Harris-Foulkes estimate   =     -77.16231867 Ry
     estimated scf accuracy    <       0.01773840 Ry

     iteration #  6     ecut=    80.00 Ry     beta= 0.40
     Davidson diagonalization with overlap
     ethr =  3.48E-05,  avg # of iterations =  5.0

     total cpu time spent up to now is       54.1 secs

     total energy              =     -77.16170997 Ry
     Harris-Foulkes estimate   =     -77.16201390 Ry
     estimated scf accuracy    <       0.00228832 Ry

     iteration #  7     ecut=    80.00 Ry     beta= 0.40
     Davidson diagonalization with overlap
     ethr =  4.49E-06,  avg # of iterations =  3.0

     total cpu time spent up to now is       60.5 secs

     total energy              =     -77.16206919 Ry
     Harris-Foulkes estimate   =     -77.16217093 Ry
     estimated scf accuracy    <       0.00045810 Ry

     iteration #  8     ecut=    80.00 Ry     beta= 0.40
     Davidson diagonalization with overlap
     ethr =  8.98E-07,  avg # of iterations =  3.0

     total cpu time spent up to now is       67.0 secs

     total energy              =     -77.16209703 Ry
     Harris-Foulkes estimate   =     -77.16213276 Ry
     estimated scf accuracy    <       0.00018360 Ry

     iteration #  9     ecut=    80.00 Ry     beta= 0.40
     Davidson diagonalization with overlap
     ethr =  3.60E-07,  avg # of iterations =  2.0

     total cpu time spent up to now is       72.5 secs

     total energy              =     -77.16210293 Ry
     Harris-Foulkes estimate   =     -77.16212766 Ry
     estimated scf accuracy    <       0.00012265 Ry

     iteration # 10     ecut=    80.00 Ry     beta= 0.40
     Davidson diagonalization with overlap
     ethr =  2.40E-07,  avg # of iterations =  3.0

     total cpu time spent up to now is       78.3 secs

     total energy              =     -77.16211214 Ry
     Harris-Foulkes estimate   =     -77.16212392 Ry
     estimated scf accuracy    <       0.00006086 Ry

     iteration # 11     ecut=    80.00 Ry     beta= 0.40
     Davidson diagonalization with overlap
     ethr =  1.19E-07,  avg # of iterations =  3.0

     total cpu time spent up to now is       84.8 secs

     total energy              =     -77.16211968 Ry
     Harris-Foulkes estimate   =     -77.16212253 Ry
     estimated scf accuracy    <       0.00000967 Ry

     iteration # 12     ecut=    80.00 Ry     beta= 0.40
     Davidson diagonalization with overlap
     ethr =  1.90E-08,  avg # of iterations =  6.0

     total cpu time spent up to now is       92.3 secs

     total energy              =     -77.16212150 Ry
     Harris-Foulkes estimate   =     -77.16212220 Ry
     estimated scf accuracy    <       0.00000363 Ry

     iteration # 13     ecut=    80.00 Ry     beta= 0.40
     Davidson diagonalization with overlap
     ethr =  7.12E-09,  avg # of iterations =  3.0

     total cpu time spent up to now is       98.6 secs

     total energy              =     -77.16212169 Ry
     Harris-Foulkes estimate   =     -77.16212218 Ry
     estimated scf accuracy    <       0.00000205 Ry

     iteration # 14     ecut=    80.00 Ry     beta= 0.40
     Davidson diagonalization with overlap
     ethr =  4.02E-09,  avg # of iterations =  3.0

     total cpu time spent up to now is      104.8 secs

     total energy              =     -77.16212184 Ry
     Harris-Foulkes estimate   =     -77.16212214 Ry
     estimated scf accuracy    <       0.00000134 Ry

     iteration # 15     ecut=    80.00 Ry     beta= 0.40
     Davidson diagonalization with overlap
     ethr =  2.63E-09,  avg # of iterations =  5.0

     total cpu time spent up to now is      111.0 secs

     End of self-consistent calculation

          k = 0.0000 0.0000 0.0000 (252395 PWs)   bands (ev):

    -9.9964  -9.1543  -9.0981  -9.0979  -9.0595  -9.0593  -8.4086  -7.5381
    -7.4672  -7.4672  -6.7263  -5.8850  -5.8791  -5.8789  -5.6093  -5.6092
    -4.7519  -4.7518  -4.0025  -3.5337  -3.3088  -3.2899  -3.2897  -3.2353
    -3.1475  -3.1134  -3.1133  -3.0988  -3.0987  -2.7512  -2.7510

     the Fermi energy is    -3.1135 ev

!    total energy              =     -77.16212137 Ry
     Harris-Foulkes estimate   =     -77.16212209 Ry
     estimated scf accuracy    <       0.00000079 Ry

     The total energy is the sum of the following terms:

     one-electron contribution =    -269.13858883 Ry
     hartree contribution      =     139.26292938 Ry
     xc contribution           =     -33.51698954 Ry
     ewald contribution        =      86.35175342 Ry
     smearing contrib. (-TS)   =      -0.12122580 Ry

     convergence has been achieved in  15 iterations

     Forces acting on atoms (cartesian axes, Ry/au):

     atom    1 type  1   force =     0.00064389    0.00502263    0.00000000
     atom    2 type  1   force =    -0.00000431   -0.02229807    0.00000000
     atom    3 type  1   force =    -0.00061212    0.00501640    0.00000000
     atom    4 type  1   force =     0.00063548    0.00035864    0.00000000
     atom    5 type  1   force =     0.00466099   -0.00194514    0.00000000
     atom    6 type  1   force =    -0.00824304   -0.00474462    0.00000000
     atom    7 type  1   force =     0.00000785    0.00001179    0.00000000
     atom    8 type  1   force =     0.00822749   -0.00474979    0.00000000
     atom    9 type  1   force =    -0.01927060    0.01113311    0.00000000
     atom   10 type  1   force =     0.00402301   -0.00306404    0.00000000
     atom   11 type  1   force =    -0.00001866    0.00950847    0.00000000
     atom   12 type  1   force =    -0.00001149    0.00000284    0.00000000
     atom   13 type  1   force =    -0.00065449    0.00036276    0.00000000
     atom   14 type  1   force =    -0.00464565   -0.00195485    0.00000000
     atom   15 type  1   force =    -0.00000589   -0.00072744    0.00000000
     atom   16 type  1   force =    -0.00401736   -0.00307811    0.00000000
     atom   17 type  1   force =     0.01928490    0.01114541    0.00000000

     Total force =     0.043757     Total SCF correction =     0.000752


     Computing stress (Cartesian axis) and pressure

          total   stress  (Ry/bohr**3)                   (kbar)     P=   -0.80
  -0.00000821   0.00000001   0.00000000         -1.21      0.00      0.00
   0.00000001  -0.00000820   0.00000000          0.00     -1.21      0.00
   0.00000000   0.00000000   0.00000001          0.00      0.00      0.00


     BFGS Geometry Optimization

     number of scf cycles    =   1
     number of bfgs steps    =   0

     enthalpy new            =     -77.1621213659 Ry

     new trust radius        =       0.0222980668 bohr
     new conv_thr            =       0.0000010000 Ry

     new unit-cell volume =  20877.22975 a.u.^3 (  3093.68623 Ang^3 )
     density =      0.27358 g/cm^3

CELL_PARAMETERS (alat= 25.26072511)
   0.999794673   0.000000198   0.000000000
  -0.499897164   0.865847709   0.000000000
   0.000000000   0.000000000   1.496177267

ATOMIC_POSITIONS (angstrom)
Al       0.000341757   2.574717629   0.000000000
Al       2.227467260   1.274232882   0.000000000
Al       4.454581965   2.574733408   0.000000000
Al       6.682711647   1.286238909   0.000000000
Al      -2.224970520   6.429102523   0.000000000
Al      -0.004328019   5.141591183   0.000000000
Al       2.227473547   6.430156948   0.000000000
Al       4.459291912   5.141607528   0.000000000
Al      -2.237598781   9.008062917   0.000000000
Al       0.002161411  10.286600952   0.000000000
Al       2.227492708   9.007222452   0.000000000
Al       8.909805636   2.572099966   0.000000000
Al      11.136935063   1.286260169   0.000000000
Al       6.679917420   6.429135537   0.000000000
Al       8.909841789   5.143754701   0.000000000
Al       4.452813398  10.286612584   0.000000000
Al       6.692611509   9.008107582   0.000000000



     Writing output data file 9al_planar_2x2_vcr.save/
     NEW-OLD atomic charge density approx. for the potential

     negative rho (up, down):  3.812E-07 0.000E+00
     extrapolated charge   50.97908, renormalised to   51.00000

     total cpu time spent up to now is      150.3 secs

     Self-consistent Calculation

     iteration #  1     ecut=    80.00 Ry     beta= 0.40
     Davidson diagonalization with overlap
     ethr =  1.00E-06,  avg # of iterations =  4.0

     negative rho (up, down):  1.936E-07 0.000E+00

     total cpu time spent up to now is      159.1 secs

     total energy              =     -77.16397830 Ry
     Harris-Foulkes estimate   =     -77.26504615 Ry
     estimated scf accuracy    <       0.00018254 Ry

     iteration #  2     ecut=    80.00 Ry     beta= 0.40
     Davidson diagonalization with overlap
     ethr =  3.58E-07,  avg # of iterations =  7.0

     negative rho (up, down):  1.699E-07 0.000E+00

     total cpu time spent up to now is      167.2 secs

     total energy              =     -77.16393330 Ry
     Harris-Foulkes estimate   =     -77.16419089 Ry
     estimated scf accuracy    <       0.00160755 Ry

     iteration #  3     ecut=    80.00 Ry     beta= 0.40
     Davidson diagonalization with overlap
     ethr =  3.58E-07,  avg # of iterations =  7.0

     negative rho (up, down):  1.183E-07 0.000E+00

     total cpu time spent up to now is      174.3 secs

     total energy              =     -77.16405696 Ry
     Harris-Foulkes estimate   =     -77.16406788 Ry
     estimated scf accuracy    <       0.00004663 Ry

     iteration #  4     ecut=    80.00 Ry     beta= 0.40
     Davidson diagonalization with overlap
     ethr =  9.14E-08,  avg # of iterations =  4.0

     negative rho (up, down):  8.298E-08 0.000E+00

     total cpu time spent up to now is      180.5 secs

     total energy              =     -77.16406022 Ry
     Harris-Foulkes estimate   =     -77.16406545 Ry
     estimated scf accuracy    <       0.00002157 Ry

     iteration #  5     ecut=    80.00 Ry     beta= 0.40
     Davidson diagonalization with overlap
     ethr =  4.23E-08,  avg # of iterations =  3.0

     negative rho (up, down):  3.969E-08 0.000E+00

     total cpu time spent up to now is      186.3 secs

     total energy              =     -77.16406246 Ry
     Harris-Foulkes estimate   =     -77.16406412 Ry
     estimated scf accuracy    <       0.00000726 Ry

     iteration #  6     ecut=    80.00 Ry     beta= 0.40
     Davidson diagonalization with overlap
     ethr =  1.42E-08,  avg # of iterations =  3.0

     negative rho (up, down):  1.905E-08 0.000E+00

     total cpu time spent up to now is      192.4 secs

     total energy              =     -77.16406285 Ry
     Harris-Foulkes estimate   =     -77.16406471 Ry
     estimated scf accuracy    <       0.00000951 Ry

     iteration #  7     ecut=    80.00 Ry     beta= 0.40
     Davidson diagonalization with overlap
     ethr =  1.42E-08,  avg # of iterations =  2.0

     total cpu time spent up to now is      197.5 secs

     End of self-consistent calculation

          k = 0.0000 0.0000 0.0000 (252395 PWs)   bands (ev):

    -9.9965  -9.1517  -9.0997  -9.0993  -9.0558  -9.0554  -8.4042  -7.5360
    -7.4658  -7.4656  -6.7341  -5.8837  -5.8720  -5.8718  -5.6132  -5.6129
    -4.7564  -4.7563  -4.0021  -3.5555  -3.2993  -3.2864  -3.2863  -3.2412
    -3.1450  -3.1123  -3.1120  -3.0977  -3.0973  -2.7449  -2.7448

     the Fermi energy is    -3.1122 ev

!    total energy              =     -77.16406346 Ry
     Harris-Foulkes estimate   =     -77.16406400 Ry
     estimated scf accuracy    <       0.00000081 Ry

     The total energy is the sum of the following terms:

     one-electron contribution =    -269.17398693 Ry
     hartree contribution      =     139.27840865 Ry
     xc contribution           =     -33.51201862 Ry
     ewald contribution        =      86.36372804 Ry
     smearing contrib. (-TS)   =      -0.12019460 Ry

     convergence has been achieved in   7 iterations

     Forces acting on atoms (cartesian axes, Ry/au):

     atom    1 type  1   force =     0.00148848    0.00372963    0.00000000
     atom    2 type  1   force =     0.00000031   -0.02207515    0.00000000
     atom    3 type  1   force =    -0.00150187    0.00372059    0.00000000
     atom    4 type  1   force =     0.00021891    0.00016614    0.00000000
     atom    5 type  1   force =     0.00400505   -0.00055872    0.00000000
     atom    6 type  1   force =    -0.00681066   -0.00395744    0.00000000
     atom    7 type  1   force =    -0.00000853   -0.00000032    0.00000000
     atom    8 type  1   force =     0.00682508   -0.00394461    0.00000000
     atom    9 type  1   force =    -0.01915707    0.01104456    0.00000000
     atom   10 type  1   force =     0.00249832   -0.00317838    0.00000000
     atom   11 type  1   force =     0.00001505    0.00787686    0.00000000
     atom   12 type  1   force =     0.00000473   -0.00002130    0.00000000
     atom   13 type  1   force =    -0.00022022    0.00015729    0.00000000
     atom   14 type  1   force =    -0.00398396   -0.00055887    0.00000000
     atom   15 type  1   force =    -0.00002415   -0.00026417    0.00000000
     atom   16 type  1   force =    -0.00249036   -0.00317246    0.00000000
     atom   17 type  1   force =     0.01914089    0.01103634    0.00000000

     Total force =     0.041813     Total SCF correction =     0.000572


     Computing stress (Cartesian axis) and pressure

          total   stress  (Ry/bohr**3)                   (kbar)     P=   -0.87
  -0.00000887   0.00000001   0.00000000         -1.30      0.00      0.00
   0.00000001  -0.00000885   0.00000000          0.00     -1.30      0.00
   0.00000000   0.00000000   0.00000004          0.00      0.00      0.01


     number of scf cycles    =   2
     number of bfgs steps    =   1

     enthalpy old            =     -77.1621213659 Ry
     enthalpy new            =     -77.1640634595 Ry

     CASE: enthalpy_new < enthalpy_old


     WARNING: bfgs curvature condition failed, Theta= 0.838
     new trust radius        =       0.0334402412 bohr
     new conv_thr            =       0.0000010000 Ry

     new unit-cell volume =  20863.78761 a.u.^3 (  3091.69431 Ang^3 )
     density =      0.27375 g/cm^3

CELL_PARAMETERS (alat= 25.26072511)
   0.999472530   0.000000485   0.000000000
  -0.499735845   0.865568970   0.000000000
   0.000000000   0.000000000   1.496177267

ATOMIC_POSITIONS (angstrom)
Al       0.001199673   2.577367926   0.000000000
Al       2.226748353   1.256133403   0.000000000
Al       4.452297058   2.577378867   0.000000000
Al       6.680895939   1.286034580   0.000000000
Al      -2.220802057   6.426046591   0.000000000
Al      -0.010315154   5.136473841   0.000000000
Al       2.226757273   6.428093083   0.000000000
Al       4.463846366   5.136494675   0.000000000
Al      -2.252195698   9.014005512   0.000000000
Al       0.004750965  10.280801262   0.000000000
Al       2.226776420   9.011242897   0.000000000
Al       8.906932999   2.571267359   0.000000000
Al      11.133001909   1.286055120   0.000000000
Al       6.674331797   6.426078290   0.000000000
Al       8.906960307   5.141710727   0.000000000
Al       4.448799756  10.280811081   0.000000000
Al       6.705777155   9.014054197   0.000000000



     Writing output data file 9al_planar_2x2_vcr.save/
     NEW-OLD atomic charge density approx. for the potential

     negative rho (up, down):  6.049E-07 0.000E+00
     extrapolated charge   50.96717, renormalised to   51.00000

     total cpu time spent up to now is      235.8 secs

     Self-consistent Calculation

     iteration #  1     ecut=    80.00 Ry     beta= 0.40
     Davidson diagonalization with overlap
     ethr =  1.00E-06,  avg # of iterations =  4.0

     negative rho (up, down):  3.123E-07 0.000E+00

     total cpu time spent up to now is      244.7 secs

     total energy              =     -77.16664953 Ry
     Harris-Foulkes estimate   =     -77.32531383 Ry
     estimated scf accuracy    <       0.00030833 Ry

     iteration #  2     ecut=    80.00 Ry     beta= 0.40
     Davidson diagonalization with overlap
     ethr =  6.05E-07,  avg # of iterations =  5.0

     negative rho (up, down):  2.702E-07 0.000E+00

     total cpu time spent up to now is      252.4 secs

     total energy              =     -77.16662042 Ry
     Harris-Foulkes estimate   =     -77.16696785 Ry
     estimated scf accuracy    <       0.00197672 Ry

     iteration #  3     ecut=    80.00 Ry     beta= 0.40
     Davidson diagonalization with overlap
     ethr =  6.05E-07,  avg # of iterations =  5.0

     negative rho (up, down):  2.057E-07 0.000E+00

     total cpu time spent up to now is      259.2 secs

     total energy              =     -77.16677653 Ry
     Harris-Foulkes estimate   =     -77.16680772 Ry
     estimated scf accuracy    <       0.00014606 Ry

     iteration #  4     ecut=    80.00 Ry     beta= 0.40
     Davidson diagonalization with overlap
     ethr =  2.86E-07,  avg # of iterations =  2.0

     negative rho (up, down):  1.449E-07 0.000E+00

     total cpu time spent up to now is      264.5 secs

     total energy              =     -77.16678613 Ry
     Harris-Foulkes estimate   =     -77.16679638 Ry
     estimated scf accuracy    <       0.00004304 Ry

     iteration #  5     ecut=    80.00 Ry     beta= 0.40
     Davidson diagonalization with overlap
     ethr =  8.44E-08,  avg # of iterations =  4.0

     negative rho (up, down):  6.658E-08 0.000E+00

     total cpu time spent up to now is      270.4 secs

     total energy              =     -77.16679052 Ry
     Harris-Foulkes estimate   =     -77.16679441 Ry
     estimated scf accuracy    <       0.00001548 Ry

     iteration #  6     ecut=    80.00 Ry     beta= 0.40
     Davidson diagonalization with overlap
     ethr =  3.03E-08,  avg # of iterations =  5.0

     negative rho (up, down):  3.027E-08 0.000E+00

     total cpu time spent up to now is      276.8 secs

     total energy              =     -77.16679086 Ry
     Harris-Foulkes estimate   =     -77.16679669 Ry
     estimated scf accuracy    <       0.00003413 Ry

     iteration #  7     ecut=    80.00 Ry     beta= 0.40
     Davidson diagonalization with overlap
     ethr =  3.03E-08,  avg # of iterations =  5.0

     negative rho (up, down):  1.785E-08 0.000E+00

     total cpu time spent up to now is      282.6 secs

     total energy              =     -77.16679395 Ry
     Harris-Foulkes estimate   =     -77.16679422 Ry
     estimated scf accuracy    <       0.00000140 Ry

     iteration #  8     ecut=    80.00 Ry     beta= 0.40
     Davidson diagonalization with overlap
     ethr =  2.75E-09,  avg # of iterations =  5.0

     negative rho (up, down):  1.220E-08 0.000E+00

     total cpu time spent up to now is      290.1 secs

     total energy              =     -77.16679418 Ry
     Harris-Foulkes estimate   =     -77.16679444 Ry
     estimated scf accuracy    <       0.00000133 Ry

     iteration #  9     ecut=    80.00 Ry     beta= 0.40
     Davidson diagonalization with overlap
     ethr =  2.61E-09,  avg # of iterations =  2.0

     total cpu time spent up to now is      295.0 secs

     End of self-consistent calculation

          k = 0.0000 0.0000 0.0000 (252395 PWs)   bands (ev):

    -9.9959  -9.1473  -9.1019  -9.1017  -9.0486  -9.0484  -8.3975  -7.5321
    -7.4627  -7.4627  -6.7445  -5.8807  -5.8611  -5.8610  -5.6176  -5.6176
    -4.7623  -4.7623  -4.0012  -3.5882  -3.2844  -3.2802  -3.2800  -3.2485
    -3.1408  -3.1121  -3.1120  -3.0931  -3.0930  -2.7349  -2.7348

     the Fermi energy is    -3.1094 ev

!    total energy              =     -77.16679410 Ry
     Harris-Foulkes estimate   =     -77.16679435 Ry
     estimated scf accuracy    <       0.00000041 Ry

     The total energy is the sum of the following terms:

     one-electron contribution =    -269.23194134 Ry
     hartree contribution      =     139.30305907 Ry
     xc contribution           =     -33.50449329 Ry
     ewald contribution        =      86.38525567 Ry
     smearing contrib. (-TS)   =      -0.11867420 Ry

     convergence has been achieved in   9 iterations

     Forces acting on atoms (cartesian axes, Ry/au):

     atom    1 type  1   force =     0.00263411    0.00198428    0.00000000
     atom    2 type  1   force =     0.00000867   -0.02181151    0.00000000
     atom    3 type  1   force =    -0.00262282    0.00199063    0.00000000
     atom    4 type  1   force =    -0.00029937   -0.00017064    0.00000000
     atom    5 type  1   force =     0.00303980    0.00129130    0.00000000
     atom    6 type  1   force =    -0.00496544   -0.00285887    0.00000000
     atom    7 type  1   force =     0.00000591    0.00001063    0.00000000
     atom    8 type  1   force =     0.00497086   -0.00286978    0.00000000
     atom    9 type  1   force =    -0.01887624    0.01090917    0.00000000
     atom   10 type  1   force =     0.00040166   -0.00327668    0.00000000
     atom   11 type  1   force =    -0.00000819    0.00573646    0.00000000
     atom   12 type  1   force =     0.00000456    0.00000708    0.00000000
     atom   13 type  1   force =     0.00027639   -0.00017276    0.00000000
     atom   14 type  1   force =    -0.00303180    0.00128348    0.00000000
     atom   15 type  1   force =    -0.00001310    0.00033228    0.00000000
     atom   16 type  1   force =    -0.00040095   -0.00327721    0.00000000
     atom   17 type  1   force =     0.01887592    0.01089215    0.00000000

     Total force =     0.039878     Total SCF correction =     0.000441


     Computing stress (Cartesian axis) and pressure

          total   stress  (Ry/bohr**3)                   (kbar)     P=   -0.96
  -0.00000982   0.00000000   0.00000000         -1.44      0.00      0.00
   0.00000000  -0.00000981   0.00000000          0.00     -1.44      0.00
   0.00000000   0.00000000   0.00000004          0.00      0.00      0.01


     number of scf cycles    =   3
     number of bfgs steps    =   2

     enthalpy old            =     -77.1640634595 Ry
     enthalpy new            =     -77.1667940988 Ry

     CASE: enthalpy_new < enthalpy_old

     new trust radius        =       0.0501442221 bohr
     new conv_thr            =       0.0000010000 Ry

     new unit-cell volume =  20842.32595 a.u.^3 (  3088.51402 Ang^3 )
     density =      0.27404 g/cm^3

CELL_PARAMETERS (alat= 25.26072511)
   0.998958007   0.000000695   0.000000000
  -0.499478402   0.865123853   0.000000000
   0.000000000   0.000000000   1.496177267

ATOMIC_POSITIONS (angstrom)
Al       0.003207515   2.580201726   0.000000000
Al       2.225605243   1.228966522   0.000000000
Al       4.448027736   2.580214908   0.000000000
Al       6.677644411   1.285474164   0.000000000
Al      -2.215059734   6.422406768   0.000000000
Al      -0.018197721   5.129296318   0.000000000
Al       2.225622481   6.424803607   0.000000000
Al       4.469430101   5.129305771   0.000000000
Al      -2.273962691   9.022622442   0.000000000
Al       0.007343911  10.271701306   0.000000000
Al       2.225612391   9.015713801   0.000000000
Al       8.902343257   2.569956550   0.000000000
Al      11.127055744   1.285498009   0.000000000
Al       6.666312330   6.422428715   0.000000000
Al       8.902366481   5.138849179   0.000000000
Al       4.443921655  10.271701745   0.000000000
Al       6.725266445   9.022670662   0.000000000



     Writing output data file 9al_planar_2x2_vcr.save/
     NEW-OLD atomic charge density approx. for the potential

     negative rho (up, down):  9.282E-07 0.000E+00
     extrapolated charge   50.94753, renormalised to   51.00000

     total cpu time spent up to now is      333.8 secs

     Self-consistent Calculation

     iteration #  1     ecut=    80.00 Ry     beta= 0.40
     Davidson diagonalization with overlap
     ethr =  1.00E-06,  avg # of iterations =  6.0

     negative rho (up, down):  4.854E-07 0.000E+00

     total cpu time spent up to now is      343.7 secs

     total energy              =     -77.17038347 Ry
     Harris-Foulkes estimate   =     -77.42402046 Ry
     estimated scf accuracy    <       0.00043108 Ry

     iteration #  2     ecut=    80.00 Ry     beta= 0.40
     Davidson diagonalization with overlap
     ethr =  8.45E-07,  avg # of iterations =  6.0

     negative rho (up, down):  4.134E-07 0.000E+00

     total cpu time spent up to now is      351.4 secs

     total energy              =     -77.17042264 Ry
     Harris-Foulkes estimate   =     -77.17080855 Ry
     estimated scf accuracy    <       0.00203467 Ry

     iteration #  3     ecut=    80.00 Ry     beta= 0.40
     Davidson diagonalization with overlap
     ethr =  8.45E-07,  avg # of iterations =  4.0

     negative rho (up, down):  3.176E-07 0.000E+00

     total cpu time spent up to now is      357.9 secs

     total energy              =     -77.17058155 Ry
     Harris-Foulkes estimate   =     -77.17062187 Ry
     estimated scf accuracy    <       0.00018653 Ry

     iteration #  4     ecut=    80.00 Ry     beta= 0.40
     Davidson diagonalization with overlap
     ethr =  3.66E-07,  avg # of iterations =  5.0

     negative rho (up, down):  2.283E-07 0.000E+00

     total cpu time spent up to now is      363.7 secs

     total energy              =     -77.17059013 Ry
     Harris-Foulkes estimate   =     -77.17060876 Ry
     estimated scf accuracy    <       0.00008955 Ry

     iteration #  5     ecut=    80.00 Ry     beta= 0.40
     Davidson diagonalization with overlap
     ethr =  1.76E-07,  avg # of iterations =  4.0

     negative rho (up, down):  5.401E-08 0.000E+00

     total cpu time spent up to now is      369.3 secs

     total energy              =     -77.17059667 Ry
     Harris-Foulkes estimate   =     -77.17060227 Ry
     estimated scf accuracy    <       0.00002841 Ry

     iteration #  6     ecut=    80.00 Ry     beta= 0.40
     Davidson diagonalization with overlap
     ethr =  5.57E-08,  avg # of iterations =  3.0

     negative rho (up, down):  3.505E-08 0.000E+00

     total cpu time spent up to now is      375.4 secs

     total energy              =     -77.17059982 Ry
     Harris-Foulkes estimate   =     -77.17060266 Ry
     estimated scf accuracy    <       0.00001177 Ry

     iteration #  7     ecut=    80.00 Ry     beta= 0.40
     Davidson diagonalization with overlap
     ethr =  2.31E-08,  avg # of iterations =  2.0

     negative rho (up, down):  2.515E-08 0.000E+00

     total cpu time spent up to now is      381.0 secs

     total energy              =     -77.17060120 Ry
     Harris-Foulkes estimate   =     -77.17060229 Ry
     estimated scf accuracy    <       0.00000547 Ry

     iteration #  8     ecut=    80.00 Ry     beta= 0.40
     Davidson diagonalization with overlap
     ethr =  1.07E-08,  avg # of iterations =  3.0

     negative rho (up, down):  1.542E-08 0.000E+00

     total cpu time spent up to now is      386.6 secs

     total energy              =     -77.17060154 Ry
     Harris-Foulkes estimate   =     -77.17060190 Ry
     estimated scf accuracy    <       0.00000158 Ry

     iteration #  9     ecut=    80.00 Ry     beta= 0.40
     Davidson diagonalization with overlap
     ethr =  3.10E-09,  avg # of iterations =  3.0

     total cpu time spent up to now is      392.8 secs

     total energy              =     -77.17060175 Ry
     Harris-Foulkes estimate   =     -77.17060195 Ry
     estimated scf accuracy    <       0.00000142 Ry

     iteration # 10     ecut=    80.00 Ry     beta= 0.40
     Davidson diagonalization with overlap
     ethr =  2.78E-09,  avg # of iterations =  2.0

     total cpu time spent up to now is      397.8 secs

     End of self-consistent calculation

          k = 0.0000 0.0000 0.0000 (252395 PWs)   bands (ev):

    -9.9950  -9.1415  -9.1050  -9.1049  -9.0379  -9.0378  -8.3904  -7.5259
    -7.4582  -7.4581  -6.7598  -5.8756  -5.8465  -5.8465  -5.6234  -5.6234
    -4.7710  -4.7710  -3.9997  -3.6400  -3.2707  -3.2706  -3.2657  -3.2541
    -3.1351  -3.1131  -3.1130  -3.0850  -3.0850  -2.7210  -2.7209

     the Fermi energy is    -3.1048 ev

!    total energy              =     -77.17060175 Ry
     Harris-Foulkes estimate   =     -77.17060190 Ry
     estimated scf accuracy    <       0.00000020 Ry

     The total energy is the sum of the following terms:

     one-electron contribution =    -269.33084658 Ry
     hartree contribution      =     139.34499304 Ry
     xc contribution           =     -33.49373443 Ry
     ewald contribution        =      86.42548371 Ry
     smearing contrib. (-TS)   =      -0.11649749 Ry

     convergence has been achieved in  10 iterations

     Forces acting on atoms (cartesian axes, Ry/au):

     atom    1 type  1   force =     0.00416022   -0.00043140    0.00000000
     atom    2 type  1   force =    -0.00000445   -0.02130828    0.00000000
     atom    3 type  1   force =    -0.00416686   -0.00043682    0.00000000
     atom    4 type  1   force =    -0.00097040   -0.00055907    0.00000000
     atom    5 type  1   force =     0.00170467    0.00380395    0.00000000
     atom    6 type  1   force =    -0.00252469   -0.00144800    0.00000000
     atom    7 type  1   force =    -0.00001044   -0.00001858    0.00000000
     atom    8 type  1   force =     0.00252405   -0.00144296    0.00000000
     atom    9 type  1   force =    -0.01847035    0.01065386    0.00000000
     atom   10 type  1   force =    -0.00245926   -0.00338804    0.00000000
     atom   11 type  1   force =     0.00001067    0.00291092    0.00000000
     atom   12 type  1   force =     0.00000943    0.00001115    0.00000000
     atom   13 type  1   force =     0.00097915   -0.00056586    0.00000000
     atom   14 type  1   force =    -0.00170220    0.00380979    0.00000000
     atom   15 type  1   force =     0.00000259    0.00112460    0.00000000
     atom   16 type  1   force =     0.00245069   -0.00337535    0.00000000
     atom   17 type  1   force =     0.01846720    0.01066010    0.00000000

     Total force =     0.038695     Total SCF correction =     0.000343


     Computing stress (Cartesian axis) and pressure

          total   stress  (Ry/bohr**3)                   (kbar)     P=   -1.10
  -0.00001118   0.00000000   0.00000000         -1.64      0.00      0.00
   0.00000000  -0.00001116   0.00000000          0.00     -1.64      0.00
   0.00000000   0.00000000  -0.00000000          0.00      0.00     -0.00


     number of scf cycles    =   4
     number of bfgs steps    =   3

     enthalpy old            =     -77.1667940988 Ry
     enthalpy new            =     -77.1706017494 Ry

     CASE: enthalpy_new < enthalpy_old

     new trust radius        =       0.0751776624 bohr
     new conv_thr            =       0.0000010000 Ry

     new unit-cell volume =  20808.44337 a.u.^3 (  3083.49314 Ang^3 )
     density =      0.27448 g/cm^3

CELL_PARAMETERS (alat= 25.26072511)
   0.998145192   0.000001075   0.000000000
  -0.499071665   0.864420611   0.000000000
   0.000000000   0.000000000   1.496177267

ATOMIC_POSITIONS (angstrom)
Al       0.007060496   2.583067911   0.000000000
Al       2.223788613   1.188218664   0.000000000
Al       4.440587777   2.583074598   0.000000000
Al       6.672138280   1.284377453   0.000000000
Al      -2.207045128   6.418040789   0.000000000
Al      -0.028783477   5.119033070   0.000000000
Al       2.223817246   6.419584935   0.000000000
Al       4.476380201   5.119038748   0.000000000
Al      -2.306495269   9.035146823   0.000000000
Al       0.009702255  10.257541141   0.000000000
Al       2.223789187   9.020616319   0.000000000
Al       8.895095257   2.567885974   0.000000000
Al      11.118057660   1.284403353   0.000000000
Al       6.654697783   6.418058396   0.000000000
Al       8.895120957   5.134769562   0.000000000
Al       4.437948574  10.257536252   0.000000000
Al       6.754199013   9.035213866   0.000000000



     Writing output data file 9al_planar_2x2_vcr.save/
     NEW-OLD atomic charge density approx. for the potential

     negative rho (up, down):  1.409E-06 0.000E+00
     extrapolated charge   50.91702, renormalised to   51.00000

     total cpu time spent up to now is      436.3 secs

     Self-consistent Calculation

     iteration #  1     ecut=    80.00 Ry     beta= 0.40
     Davidson diagonalization with overlap
     ethr =  1.00E-06,  avg # of iterations =  7.0

     negative rho (up, down):  7.498E-07 0.000E+00

     total cpu time spent up to now is      447.0 secs

     total energy              =     -77.17530986 Ry
     Harris-Foulkes estimate   =     -77.57685840 Ry
     estimated scf accuracy    <       0.00105349 Ry

     iteration #  2     ecut=    80.00 Ry     beta= 0.40
     Davidson diagonalization with overlap
     ethr =  2.07E-06,  avg # of iterations =  5.0

     negative rho (up, down):  6.376E-07 0.000E+00

     total cpu time spent up to now is      454.9 secs

     total energy              =     -77.17544740 Ry
     Harris-Foulkes estimate   =     -77.17645519 Ry
     estimated scf accuracy    <       0.00527139 Ry

     iteration #  3     ecut=    80.00 Ry     beta= 0.40
     Davidson diagonalization with overlap
     ethr =  2.07E-06,  avg # of iterations =  4.0

     negative rho (up, down):  5.062E-07 0.000E+00

     total cpu time spent up to now is      461.4 secs

     total energy              =     -77.17585293 Ry
     Harris-Foulkes estimate   =     -77.17592753 Ry
     estimated scf accuracy    <       0.00036228 Ry

     iteration #  4     ecut=    80.00 Ry     beta= 0.40
     Davidson diagonalization with overlap
     ethr =  7.10E-07,  avg # of iterations =  5.0

     negative rho (up, down):  3.839E-07 0.000E+00

     total cpu time spent up to now is      467.5 secs

     total energy              =     -77.17586623 Ry
     Harris-Foulkes estimate   =     -77.17590492 Ry
     estimated scf accuracy    <       0.00021596 Ry

     iteration #  5     ecut=    80.00 Ry     beta= 0.40
     Davidson diagonalization with overlap
     ethr =  4.23E-07,  avg # of iterations =  4.0

     negative rho (up, down):  5.849E-08 0.000E+00

     total cpu time spent up to now is      473.1 secs

     total energy              =     -77.17587183 Ry
     Harris-Foulkes estimate   =     -77.17588796 Ry
     estimated scf accuracy    <       0.00006890 Ry

     iteration #  6     ecut=    80.00 Ry     beta= 0.40
     Davidson diagonalization with overlap
     ethr =  1.35E-07,  avg # of iterations =  4.0

     negative rho (up, down):  4.344E-08 0.000E+00

     total cpu time spent up to now is      479.8 secs

     total energy              =     -77.17588308 Ry
     Harris-Foulkes estimate   =     -77.17588835 Ry
     estimated scf accuracy    <       0.00002526 Ry

     iteration #  7     ecut=    80.00 Ry     beta= 0.40
     Davidson diagonalization with overlap
     ethr =  4.95E-08,  avg # of iterations =  4.0

     negative rho (up, down):  3.520E-08 0.000E+00

     total cpu time spent up to now is      485.6 secs

     total energy              =     -77.17588406 Ry
     Harris-Foulkes estimate   =     -77.17588712 Ry
     estimated scf accuracy    <       0.00001770 Ry

     iteration #  8     ecut=    80.00 Ry     beta= 0.40
     Davidson diagonalization with overlap
     ethr =  3.47E-08,  avg # of iterations =  1.0

     total cpu time spent up to now is      490.9 secs

     total energy              =     -77.17588430 Ry
     Harris-Foulkes estimate   =     -77.17588545 Ry
     estimated scf accuracy    <       0.00000376 Ry

     iteration #  9     ecut=    80.00 Ry     beta= 0.40
     Davidson diagonalization with overlap
     ethr =  7.37E-09,  avg # of iterations =  6.0

     total cpu time spent up to now is      498.2 secs

     total energy              =     -77.17588506 Ry
     Harris-Foulkes estimate   =     -77.17588568 Ry
     estimated scf accuracy    <       0.00000454 Ry

     iteration # 10     ecut=    80.00 Ry     beta= 0.40
     Davidson diagonalization with overlap
     ethr =  7.37E-09,  avg # of iterations =  1.0

     total cpu time spent up to now is      503.4 secs

     total energy              =     -77.17588521 Ry
     Harris-Foulkes estimate   =     -77.17588534 Ry
     estimated scf accuracy    <       0.00000108 Ry

     iteration # 11     ecut=    80.00 Ry     beta= 0.40
     Davidson diagonalization with overlap
     ethr =  2.11E-09,  avg # of iterations =  3.0

     total cpu time spent up to now is      508.7 secs

     End of self-consistent calculation

          k = 0.0000 0.0000 0.0000 (252395 PWs)   bands (ev):

    -9.9943  -9.1333  -9.1100  -9.1099  -9.0238  -9.0237  -8.3841  -7.5175
    -7.4521  -7.4520  -6.7838  -5.8673  -5.8274  -5.8273  -5.6319  -5.6319
    -4.7846  -4.7845  -3.9979  -3.7243  -3.2732  -3.2565  -3.2564  -3.2268
    -3.1265  -3.1148  -3.1147  -3.0738  -3.0738  -2.7019  -2.7018

     the Fermi energy is    -3.0975 ev

!    total energy              =     -77.17588502 Ry
     Harris-Foulkes estimate   =     -77.17588527 Ry
     estimated scf accuracy    <       0.00000035 Ry

     The total energy is the sum of the following terms:

     one-electron contribution =    -269.50044509 Ry
     hartree contribution      =     139.41893710 Ry
     xc contribution           =     -33.47895571 Ry
     ewald contribution        =      86.49820802 Ry
     smearing contrib. (-TS)   =      -0.11362935 Ry

     convergence has been achieved in  11 iterations

     Forces acting on atoms (cartesian axes, Ry/au):

     atom    1 type  1   force =     0.00609633   -0.00391217    0.00000000
     atom    2 type  1   force =     0.00000306   -0.02021474    0.00000000
     atom    3 type  1   force =    -0.00611359   -0.00389467    0.00000000
     atom    4 type  1   force =    -0.00189938   -0.00109947    0.00000000
     atom    5 type  1   force =    -0.00033821    0.00724187    0.00000000
     atom    6 type  1   force =     0.00073654    0.00042739    0.00000000
     atom    7 type  1   force =     0.00000270    0.00000461    0.00000000
     atom    8 type  1   force =    -0.00071628    0.00042892    0.00000000
     atom    9 type  1   force =    -0.01750985    0.01009972    0.00000000
     atom   10 type  1   force =    -0.00642219   -0.00334357    0.00000000
     atom   11 type  1   force =     0.00001485   -0.00083246    0.00000000
     atom   12 type  1   force =    -0.00000725   -0.00000312    0.00000000
     atom   13 type  1   force =     0.00191265   -0.00111454    0.00000000
     atom   14 type  1   force =     0.00031567    0.00726996    0.00000000
     atom   15 type  1   force =    -0.00000455    0.00221061    0.00000000
     atom   16 type  1   force =     0.00644013   -0.00335630    0.00000000
     atom   17 type  1   force =     0.01748937    0.01008797    0.00000000

     Total force =     0.039463     Total SCF correction =     0.000500


     Computing stress (Cartesian axis) and pressure

          total   stress  (Ry/bohr**3)                   (kbar)     P=   -1.29
  -0.00001310  -0.00000000   0.00000000         -1.93     -0.00      0.00
  -0.00000000  -0.00001310   0.00000000         -0.00     -1.93      0.00
   0.00000000   0.00000000  -0.00000002          0.00      0.00     -0.00


     number of scf cycles    =   5
     number of bfgs steps    =   4

     enthalpy old            =     -77.1706017494 Ry
     enthalpy new            =     -77.1758850164 Ry

     CASE: enthalpy_new < enthalpy_old

     new trust radius        =       0.1126748529 bohr
     new conv_thr            =       0.0000010000 Ry

     new unit-cell volume =  20755.08233 a.u.^3 (  3075.58585 Ang^3 )
     density =      0.27519 g/cm^3

CELL_PARAMETERS (alat= 25.26072511)
   0.996864045   0.000001683   0.000000000
  -0.498430565   0.863311676   0.000000000
   0.000000000   0.000000000   1.496177267

ATOMIC_POSITIONS (angstrom)
Al       0.013843353   2.585447132   0.000000000
Al       2.220930917   1.127147621   0.000000000
Al       4.428143275   2.585459997   0.000000000
Al       6.662995681   1.282380635   0.000000000
Al      -2.195902945   6.412858287   0.000000000
Al      -0.043174623   5.104167980   0.000000000
Al       2.220982375   6.411375555   0.000000000
Al       4.485057174   5.104166118   0.000000000
Al      -2.355030353   9.053299182   0.000000000
Al       0.011230395  10.235653961   0.000000000
Al       2.220918358   9.025707736   0.000000000
Al       8.883657123   2.564606121   0.000000000
Al      11.104341662   1.282404248   0.000000000
Al       6.637864603   6.412884755   0.000000000
Al       8.883693363   5.128881172   0.000000000
Al       4.430744942  10.235620111   0.000000000
Al       6.797046578   9.053382292   0.000000000



     Writing output data file 9al_planar_2x2_vcr.save/
     NEW-OLD atomic charge density approx. for the potential

     negative rho (up, down):  2.104E-06 0.000E+00
     extrapolated charge   50.86899, renormalised to   51.00000

     total cpu time spent up to now is      547.4 secs

     Self-consistent Calculation

     iteration #  1     ecut=    80.00 Ry     beta= 0.40
     Davidson diagonalization with overlap
     ethr =  1.00E-06,  avg # of iterations =  8.0

     negative rho (up, down):  1.140E-06 0.000E+00

     total cpu time spent up to now is      559.4 secs

     total energy              =     -77.18107791 Ry
     Harris-Foulkes estimate   =     -77.81669014 Ry
     estimated scf accuracy    <       0.00318702 Ry

     iteration #  2     ecut=    80.00 Ry     beta= 0.40
     Davidson diagonalization with overlap
     ethr =  6.25E-06,  avg # of iterations =  5.0

     negative rho (up, down):  9.689E-07 0.000E+00

     total cpu time spent up to now is      566.9 secs

     total energy              =     -77.18146088 Ry
     Harris-Foulkes estimate   =     -77.18476385 Ry
     estimated scf accuracy    <       0.01730080 Ry

     iteration #  3     ecut=    80.00 Ry     beta= 0.40
     Davidson diagonalization with overlap
     ethr =  6.25E-06,  avg # of iterations =  3.0

     negative rho (up, down):  7.936E-07 0.000E+00

     total cpu time spent up to now is      573.5 secs

     total energy              =     -77.18279321 Ry
     Harris-Foulkes estimate   =     -77.18297984 Ry
     estimated scf accuracy    <       0.00097703 Ry

     iteration #  4     ecut=    80.00 Ry     beta= 0.40
     Davidson diagonalization with overlap
     ethr =  1.92E-06,  avg # of iterations =  4.0

     negative rho (up, down):  6.197E-07 0.000E+00

     total cpu time spent up to now is      579.5 secs

     total energy              =     -77.18284025 Ry
     Harris-Foulkes estimate   =     -77.18292195 Ry
     estimated scf accuracy    <       0.00050085 Ry

     iteration #  5     ecut=    80.00 Ry     beta= 0.40
     Davidson diagonalization with overlap
     ethr =  9.82E-07,  avg # of iterations =  3.0

     negative rho (up, down):  6.531E-08 0.000E+00

     total cpu time spent up to now is      584.9 secs

     total energy              =     -77.18282811 Ry
     Harris-Foulkes estimate   =     -77.18288089 Ry
     estimated scf accuracy    <       0.00018714 Ry

     iteration #  6     ecut=    80.00 Ry     beta= 0.40
     Davidson diagonalization with overlap
     ethr =  3.67E-07,  avg # of iterations =  4.0

     negative rho (up, down):  4.667E-08 0.000E+00

     total cpu time spent up to now is      591.8 secs

     total energy              =     -77.18286670 Ry
     Harris-Foulkes estimate   =     -77.18288514 Ry
     estimated scf accuracy    <       0.00010657 Ry

     iteration #  7     ecut=    80.00 Ry     beta= 0.40
     Davidson diagonalization with overlap
     ethr =  2.09E-07,  avg # of iterations =  2.0

     negative rho (up, down):  4.104E-08 0.000E+00

     total cpu time spent up to now is      597.2 secs

     total energy              =     -77.18286905 Ry
     Harris-Foulkes estimate   =     -77.18287849 Ry
     estimated scf accuracy    <       0.00005534 Ry

     iteration #  8     ecut=    80.00 Ry     beta= 0.40
     Davidson diagonalization with overlap
     ethr =  1.09E-07,  avg # of iterations =  1.0

     negative rho (up, down):  1.146E-08 0.000E+00

     total cpu time spent up to now is      602.5 secs

     total energy              =     -77.18286668 Ry
     Harris-Foulkes estimate   =     -77.18287239 Ry
     estimated scf accuracy    <       0.00001642 Ry

     iteration #  9     ecut=    80.00 Ry     beta= 0.40
     Davidson diagonalization with overlap
     ethr =  3.22E-08,  avg # of iterations =  3.0

     total cpu time spent up to now is      609.5 secs

     total energy              =     -77.18287035 Ry
     Harris-Foulkes estimate   =     -77.18287139 Ry
     estimated scf accuracy    <       0.00000777 Ry

     iteration # 10     ecut=    80.00 Ry     beta= 0.40
     Davidson diagonalization with overlap
     ethr =  1.52E-08,  avg # of iterations =  1.0

     total cpu time spent up to now is      614.8 secs

     total energy              =     -77.18287057 Ry
     Harris-Foulkes estimate   =     -77.18287088 Ry
     estimated scf accuracy    <       0.00000241 Ry

     iteration # 11     ecut=    80.00 Ry     beta= 0.40
     Davidson diagonalization with overlap
     ethr =  4.72E-09,  avg # of iterations =  1.0

     total cpu time spent up to now is      620.2 secs

     total energy              =     -77.18287032 Ry
     Harris-Foulkes estimate   =     -77.18287066 Ry
     estimated scf accuracy    <       0.00000114 Ry

     iteration # 12     ecut=    80.00 Ry     beta= 0.40
     Davidson diagonalization with overlap
     ethr =  2.24E-09,  avg # of iterations =  3.0

     total cpu time spent up to now is      627.1 secs

     End of self-consistent calculation

          k = 0.0000 0.0000 0.0000 (252395 PWs)   bands (ev):

    -9.9937  -9.1209  -9.1167  -9.1166  -9.0060  -9.0059  -8.3837  -7.5059
    -7.4439  -7.4438  -6.8238  -5.8530  -5.8031  -5.8030  -5.6445  -5.6443
    -4.8054  -4.8054  -3.9955  -3.8670  -3.2905  -3.2349  -3.2349  -3.1780
    -3.1162  -3.1161  -3.1130  -3.0595  -3.0595  -2.6762  -2.6762

     the Fermi energy is    -3.0849 ev

!    total energy              =     -77.18287030 Ry
     Harris-Foulkes estimate   =     -77.18287069 Ry
     estimated scf accuracy    <       0.00000045 Ry

     The total energy is the sum of the following terms:

     one-electron contribution =    -269.79164766 Ry
     hartree contribution      =     139.54807544 Ry
     xc contribution           =     -33.45881749 Ry
     ewald contribution        =      86.63043765 Ry
     smearing contrib. (-TS)   =      -0.11091824 Ry

     convergence has been achieved in  12 iterations

     Forces acting on atoms (cartesian axes, Ry/au):

     atom    1 type  1   force =     0.00853714   -0.00899081    0.00000000
     atom    2 type  1   force =     0.00002177   -0.01719101    0.00000000
     atom    3 type  1   force =    -0.00854053   -0.00900034    0.00000000
     atom    4 type  1   force =    -0.00319933   -0.00185010    0.00000000
     atom    5 type  1   force =    -0.00354842    0.01187976    0.00000000
     atom    6 type  1   force =     0.00517427    0.00299620    0.00000000
     atom    7 type  1   force =    -0.00000326   -0.00002135    0.00000000
     atom    8 type  1   force =    -0.00515418    0.00298488    0.00000000
     atom    9 type  1   force =    -0.01489077    0.00859287    0.00000000
     atom   10 type  1   force =    -0.01207468   -0.00287227    0.00000000
     atom   11 type  1   force =     0.00000373   -0.00596696    0.00000000
     atom   12 type  1   force =    -0.00001192    0.00002452    0.00000000
     atom   13 type  1   force =     0.00319450   -0.00183852    0.00000000
     atom   14 type  1   force =     0.00352274    0.01186637    0.00000000
     atom   15 type  1   force =     0.00001264    0.00368832    0.00000000
     atom   16 type  1   force =     0.01204271   -0.00288886    0.00000000
     atom   17 type  1   force =     0.01491357    0.00858730    0.00000000

     Total force =     0.044238     Total SCF correction =     0.000556


     Computing stress (Cartesian axis) and pressure

          total   stress  (Ry/bohr**3)                   (kbar)     P=   -1.55
  -0.00001583  -0.00000001   0.00000000         -2.33     -0.00      0.00
  -0.00000001  -0.00001582   0.00000000         -0.00     -2.33      0.00
   0.00000000   0.00000000   0.00000002          0.00      0.00      0.00


     number of scf cycles    =   6
     number of bfgs steps    =   5

     enthalpy old            =     -77.1758850164 Ry
     enthalpy new            =     -77.1828703047 Ry

     CASE: enthalpy_new < enthalpy_old

     new trust radius        =       0.1687955189 bohr
     new conv_thr            =       0.0000010000 Ry

     new unit-cell volume =  20669.81870 a.u.^3 (  3062.95108 Ang^3 )
     density =      0.27632 g/cm^3

CELL_PARAMETERS (alat= 25.26072511)
   0.994813346   0.000002198   0.000000000
  -0.497404769   0.861537171   0.000000000
   0.000000000   0.000000000   1.496177267

ATOMIC_POSITIONS (angstrom)
Al       0.025565991   2.585759774   0.000000000
Al       2.216371351   1.035693138   0.000000000
Al       4.407366963   2.585754309   0.000000000
Al       6.647639884   1.278771408   0.000000000
Al      -2.180688919   6.407055402   0.000000000
Al      -0.062706250   5.082399668   0.000000000
Al       2.216435699   6.398214776   0.000000000
Al       4.495436963   5.082375020   0.000000000
Al      -2.427270953   9.079214921   0.000000000
Al       0.010182455  10.201658925   0.000000000
Al       2.216309784   9.029802491   0.000000000
Al       8.865343286   2.559371614   0.000000000
Al      11.083091395   1.278813276   0.000000000
Al       6.613537093   6.407053793   0.000000000
Al       8.865411656   5.120263307   0.000000000
Al       4.422656585  10.201574398   0.000000000
Al       6.860212002   9.079325883   0.000000000



     Writing output data file 9al_planar_2x2_vcr.save/
     NEW-OLD atomic charge density approx. for the potential

     negative rho (up, down):  3.534E-06 0.000E+00
     extrapolated charge   50.78980, renormalised to   51.00000

     total cpu time spent up to now is      666.3 secs

     Self-consistent Calculation

     iteration #  1     ecut=    80.00 Ry     beta= 0.40
     Davidson diagonalization with overlap
     ethr =  1.00E-06,  avg # of iterations =  9.0

     negative rho (up, down):  1.950E-06 0.000E+00

     total cpu time spent up to now is      679.0 secs

     total energy              =     -77.18573971 Ry
     Harris-Foulkes estimate   =     -78.20981611 Ry
     estimated scf accuracy    <       0.00896895 Ry

     iteration #  2     ecut=    80.00 Ry     beta= 0.40
     Davidson diagonalization with overlap
     ethr =  1.76E-05,  avg # of iterations = 11.0

     negative rho (up, down):  1.671E-06 0.000E+00

     total cpu time spent up to now is      687.2 secs

     total energy              =     -77.18618140 Ry
     Harris-Foulkes estimate   =     -77.19681533 Ry
     estimated scf accuracy    <       0.05952400 Ry

     iteration #  3     ecut=    80.00 Ry     beta= 0.40
     Davidson diagonalization with overlap
     ethr =  1.76E-05,  avg # of iterations =  4.0

     negative rho (up, down):  1.357E-06 0.000E+00

     total cpu time spent up to now is      694.0 secs

     total energy              =     -77.19039972 Ry
     Harris-Foulkes estimate   =     -77.19069503 Ry
     estimated scf accuracy    <       0.00246224 Ry

     iteration #  4     ecut=    80.00 Ry     beta= 0.40
     Davidson diagonalization with overlap
     ethr =  4.83E-06,  avg # of iterations =  3.0

     negative rho (up, down):  8.817E-07 0.000E+00

     total cpu time spent up to now is      699.5 secs

     total energy              =     -77.19026362 Ry
     Harris-Foulkes estimate   =     -77.19051042 Ry
     estimated scf accuracy    <       0.00148080 Ry

     iteration #  5     ecut=    80.00 Ry     beta= 0.40
     Davidson diagonalization with overlap
     ethr =  2.90E-06,  avg # of iterations =  1.0

     negative rho (up, down):  7.412E-08 0.000E+00

     total cpu time spent up to now is      704.7 secs

     total energy              =     -77.19009019 Ry
     Harris-Foulkes estimate   =     -77.19038621 Ry
     estimated scf accuracy    <       0.00103956 Ry

     iteration #  6     ecut=    80.00 Ry     beta= 0.40
     Davidson diagonalization with overlap
     ethr =  2.04E-06,  avg # of iterations =  4.0

     negative rho (up, down):  5.395E-08 0.000E+00

     total cpu time spent up to now is      711.0 secs

     total energy              =     -77.19029790 Ry
     Harris-Foulkes estimate   =     -77.19033415 Ry
     estimated scf accuracy    <       0.00024220 Ry

     iteration #  7     ecut=    80.00 Ry     beta= 0.40
     Davidson diagonalization with overlap
     ethr =  4.75E-07,  avg # of iterations =  3.0

     negative rho (up, down):  4.318E-08 0.000E+00

     total cpu time spent up to now is      717.1 secs

     total energy              =     -77.19030138 Ry
     Harris-Foulkes estimate   =     -77.19032999 Ry
     estimated scf accuracy    <       0.00015819 Ry

     iteration #  8     ecut=    80.00 Ry     beta= 0.40
     Davidson diagonalization with overlap
     ethr =  3.10E-07,  avg # of iterations =  1.0

     negative rho (up, down):  2.313E-08 0.000E+00

     total cpu time spent up to now is      722.3 secs

     total energy              =     -77.19029217 Ry
     Harris-Foulkes estimate   =     -77.19030864 Ry
     estimated scf accuracy    <       0.00006989 Ry

     iteration #  9     ecut=    80.00 Ry     beta= 0.40
     Davidson diagonalization with overlap
     ethr =  1.37E-07,  avg # of iterations =  3.0

     negative rho (up, down):  1.595E-08 0.000E+00

     total cpu time spent up to now is      728.3 secs

     total energy              =     -77.19029674 Ry
     Harris-Foulkes estimate   =     -77.19030021 Ry
     estimated scf accuracy    <       0.00001574 Ry

     iteration # 10     ecut=    80.00 Ry     beta= 0.40
     Davidson diagonalization with overlap
     ethr =  3.09E-08,  avg # of iterations =  4.0

     negative rho (up, down):  1.690E-08 0.000E+00

     total cpu time spent up to now is      734.9 secs

     total energy              =     -77.19029918 Ry
     Harris-Foulkes estimate   =     -77.19029980 Ry
     estimated scf accuracy    <       0.00000245 Ry

     iteration # 11     ecut=    80.00 Ry     beta= 0.40
     Davidson diagonalization with overlap
     c_bands:  1 eigenvalues not converged
     ethr =  4.80E-09,  avg # of iterations = 20.0

     negative rho (up, down):  1.728E-08 0.000E+00

     total cpu time spent up to now is      743.3 secs

     total energy              =     -77.19090094 Ry
     Harris-Foulkes estimate   =     -77.19089698 Ry
     estimated scf accuracy    <       0.00039783 Ry

     iteration # 12     ecut=    80.00 Ry     beta= 0.40
     Davidson diagonalization with overlap
     ethr =  4.80E-09,  avg # of iterations =  6.0

     total cpu time spent up to now is      748.8 secs

     total energy              =     -77.19090557 Ry
     Harris-Foulkes estimate   =     -77.19090109 Ry
     estimated scf accuracy    <       0.00041255 Ry

     iteration # 13     ecut=    80.00 Ry     beta= 0.40
     Davidson diagonalization with overlap
     ethr =  4.80E-09,  avg # of iterations =  1.0

     total cpu time spent up to now is      753.9 secs

     total energy              =     -77.19091010 Ry
     Harris-Foulkes estimate   =     -77.19090575 Ry
     estimated scf accuracy    <       0.00043857 Ry

     iteration # 14     ecut=    80.00 Ry     beta= 0.40
     Davidson diagonalization with overlap
     ethr =  4.80E-09,  avg # of iterations =  1.0

     total cpu time spent up to now is      759.0 secs

     total energy              =     -77.19092045 Ry
     Harris-Foulkes estimate   =     -77.19091024 Ry
     estimated scf accuracy    <       0.00045661 Ry

     iteration # 15     ecut=    80.00 Ry     beta= 0.40
     Davidson diagonalization with overlap
     ethr =  4.80E-09,  avg # of iterations =  3.0

     total cpu time spent up to now is      764.4 secs

     total energy              =     -77.19091686 Ry
     Harris-Foulkes estimate   =     -77.19092079 Ry
     estimated scf accuracy    <       0.00051175 Ry

     iteration # 16     ecut=    80.00 Ry     beta= 0.40
     Davidson diagonalization with overlap
     ethr =  4.80E-09,  avg # of iterations =  2.0

     total cpu time spent up to now is      770.0 secs

     total energy              =     -77.19091668 Ry
     Harris-Foulkes estimate   =     -77.19091708 Ry
     estimated scf accuracy    <       0.00049292 Ry

     iteration # 17     ecut=    80.00 Ry     beta= 0.40
     Davidson diagonalization with overlap
     ethr =  4.80E-09,  avg # of iterations =  1.0

     total cpu time spent up to now is      775.1 secs

     total energy              =     -77.19091377 Ry
     Harris-Foulkes estimate   =     -77.19091685 Ry
     estimated scf accuracy    <       0.00050057 Ry

     iteration # 18     ecut=    80.00 Ry     beta= 0.40
     Davidson diagonalization with overlap
     ethr =  4.80E-09,  avg # of iterations =  1.0

     total cpu time spent up to now is      780.1 secs

     total energy              =     -77.19092122 Ry
     Harris-Foulkes estimate   =     -77.19091392 Ry
     estimated scf accuracy    <       0.00048571 Ry

     iteration # 19     ecut=    80.00 Ry     beta= 0.40
     Davidson diagonalization with overlap
     ethr =  4.80E-09,  avg # of iterations =  1.0

     negative rho (up, down):  1.393E-07 0.000E+00

     total cpu time spent up to now is      785.3 secs

     total energy              =     -77.19075498 Ry
     Harris-Foulkes estimate   =     -77.19092130 Ry
     estimated scf accuracy    <       0.00051500 Ry

     iteration # 20     ecut=    80.00 Ry     beta= 0.40
     Davidson diagonalization with overlap
     ethr =  4.80E-09,  avg # of iterations = 10.0

     negative rho (up, down):  7.954E-08 0.000E+00

     total cpu time spent up to now is      797.7 secs

     total energy              =     -77.19081416 Ry
     Harris-Foulkes estimate   =     -77.19081890 Ry
     estimated scf accuracy    <       0.00003008 Ry

     iteration # 21     ecut=    80.00 Ry     beta= 0.40
     Davidson diagonalization with overlap
     ethr =  4.80E-09,  avg # of iterations =  7.0

     negative rho (up, down):  4.751E-08 0.000E+00

     total cpu time spent up to now is      806.4 secs

     total energy              =     -77.19081675 Ry
     Harris-Foulkes estimate   =     -77.19081801 Ry
     estimated scf accuracy    <       0.00000947 Ry

     iteration # 22     ecut=    80.00 Ry     beta= 0.40
     Davidson diagonalization with overlap
     ethr =  4.80E-09,  avg # of iterations =  6.0

     negative rho (up, down):  1.723E-08 0.000E+00

     total cpu time spent up to now is      813.4 secs

     total energy              =     -77.19081783 Ry
     Harris-Foulkes estimate   =     -77.19081785 Ry
     estimated scf accuracy    <       0.00000224 Ry

     iteration # 23     ecut=    80.00 Ry     beta= 0.40
     Davidson diagonalization with overlap
     ethr =  4.39E-09,  avg # of iterations =  3.0

     negative rho (up, down):  1.451E-08 0.000E+00

     total cpu time spent up to now is      819.5 secs

     total energy              =     -77.19081767 Ry
     Harris-Foulkes estimate   =     -77.19081829 Ry
     estimated scf accuracy    <       0.00000304 Ry

     iteration # 24     ecut=    80.00 Ry     beta= 0.40
     Davidson diagonalization with overlap
     ethr =  4.39E-09,  avg # of iterations =  3.0

     total cpu time spent up to now is      825.3 secs

     total energy              =     -77.19081798 Ry
     Harris-Foulkes estimate   =     -77.19081822 Ry
     estimated scf accuracy    <       0.00000187 Ry

     iteration # 25     ecut=    80.00 Ry     beta= 0.40
     Davidson diagonalization with overlap
     ethr =  3.67E-09,  avg # of iterations =  1.0

     total cpu time spent up to now is      830.4 secs

     End of self-consistent calculation

          k = 0.0000 0.0000 0.0000 (252395 PWs)   bands (ev):

    -9.9941  -9.1256  -9.1255  -9.1015  -8.9845  -8.9844  -8.4029  -7.4898
    -7.4328  -7.4327  -6.8939  -5.8298  -5.7778  -5.7777  -5.6604  -5.6604
    -4.8359  -4.8358  -4.1079  -3.9932  -3.3115  -3.2022  -3.2021  -3.1162
    -3.1161  -3.1042  -3.0914  -3.0423  -3.0422  -2.6452  -2.6451

     the Fermi energy is    -3.0630 ev

!    total energy              =     -77.19081802 Ry
     Harris-Foulkes estimate   =     -77.19081819 Ry
     estimated scf accuracy    <       0.00000023 Ry

     The total energy is the sum of the following terms:

     one-electron contribution =    -270.30644701 Ry
     hartree contribution      =     139.77604414 Ry
     xc contribution           =     -33.43112394 Ry
     ewald contribution        =      86.88179218 Ry
     smearing contrib. (-TS)   =      -0.11108339 Ry

     convergence has been achieved in  25 iterations

     Forces acting on atoms (cartesian axes, Ry/au):

     atom    1 type  1   force =     0.01103556   -0.01650414    0.00000000
     atom    2 type  1   force =     0.00002106   -0.01052715    0.00000000
     atom    3 type  1   force =    -0.01108529   -0.01650765    0.00000000
     atom    4 type  1   force =    -0.00484318   -0.00279935    0.00000000
     atom    5 type  1   force =    -0.00879107    0.01781695    0.00000000
     atom    6 type  1   force =     0.01123284    0.00645929    0.00000000
     atom    7 type  1   force =    -0.00001411   -0.00001791    0.00000000
     atom    8 type  1   force =    -0.01119358    0.00647526    0.00000000
     atom    9 type  1   force =    -0.00913459    0.00527278    0.00000000
     atom   10 type  1   force =    -0.01983680   -0.00131803    0.00000000
     atom   11 type  1   force =     0.00003175   -0.01293556    0.00000000
     atom   12 type  1   force =    -0.00000405    0.00001232    0.00000000
     atom   13 type  1   force =     0.00487057   -0.00279738    0.00000000
     atom   14 type  1   force =     0.00875910    0.01781776    0.00000000
     atom   15 type  1   force =     0.00001485    0.00559770    0.00000000
     atom   16 type  1   force =     0.01979233   -0.00130679    0.00000000
     atom   17 type  1   force =     0.00914461    0.00526190    0.00000000

     Total force =     0.057421     Total SCF correction =     0.000366


     Computing stress (Cartesian axis) and pressure

          total   stress  (Ry/bohr**3)                   (kbar)     P=   -1.91
  -0.00001951  -0.00000002   0.00000000         -2.87     -0.00      0.00
  -0.00000002  -0.00001952   0.00000000         -0.00     -2.87      0.00
   0.00000000   0.00000000   0.00000000          0.00      0.00      0.00


     number of scf cycles    =   7
     number of bfgs steps    =   6

     enthalpy old            =     -77.1828703047 Ry
     enthalpy new            =     -77.1908180202 Ry

     CASE: enthalpy_new < enthalpy_old

     new trust radius        =       0.2526729253 bohr
     new conv_thr            =       0.0000010000 Ry

     new unit-cell volume =  20527.75317 a.u.^3 (  3041.89914 Ang^3 )
     density =      0.27824 g/cm^3

CELL_PARAMETERS (alat= 25.26072511)
   0.991387495   0.000002760   0.000000000
  -0.495691358   0.858572141   0.000000000
   0.000000000   0.000000000   1.496177267

ATOMIC_POSITIONS (angstrom)
Al       0.046111769   2.578258160   0.000000000
Al       2.208754233   0.898881718   0.000000000
Al       4.371638432   2.578219962   0.000000000
Al       6.620598873   1.271950349   0.000000000
Al      -2.161716503   6.402225612   0.000000000
Al      -0.087836583   5.050307671   0.000000000
Al       2.208822902   6.376224341   0.000000000
Al       4.505298985   5.050278408   0.000000000
Al      -2.534155578   9.114534187   0.000000000
Al       0.000993537  10.147992259   0.000000000
Al       2.208641924   9.028006555   0.000000000
Al       8.834756617   2.550600384   0.000000000
Al      11.049015004   1.272014445   0.000000000
Al       6.579334934   6.402183248   0.000000000
Al       8.834869146   5.107467120   0.000000000
Al       4.416558626  10.147854922   0.000000000
Al       6.951917850   9.114683707   0.000000000



     Writing output data file 9al_planar_2x2_vcr.save/
     NEW-OLD atomic charge density approx. for the potential

     negative rho (up, down):  7.409E-06 0.000E+00
     extrapolated charge   50.64733, renormalised to   51.00000

     total cpu time spent up to now is      869.2 secs

     Self-consistent Calculation

     iteration #  1     ecut=    80.00 Ry     beta= 0.40
     Davidson diagonalization with overlap
     ethr =  1.00E-06,  avg # of iterations = 10.0

     negative rho (up, down):  4.206E-06 0.000E+00

     total cpu time spent up to now is      882.1 secs

     total energy              =     -77.18644706 Ry
     Harris-Foulkes estimate   =     -78.91350452 Ry
     estimated scf accuracy    <       0.01936472 Ry

     iteration #  2     ecut=    80.00 Ry     beta= 0.40
     Davidson diagonalization with overlap
     ethr =  3.80E-05,  avg # of iterations =  8.0

     negative rho (up, down):  3.624E-06 0.000E+00

     total cpu time spent up to now is      890.0 secs

     total energy              =     -77.18861181 Ry
     Harris-Foulkes estimate   =     -77.21635578 Ry
     estimated scf accuracy    <       0.17032135 Ry

     iteration #  3     ecut=    80.00 Ry     beta= 0.40
     Davidson diagonalization with overlap
     ethr =  3.80E-05,  avg # of iterations =  4.0

     negative rho (up, down):  2.996E-06 0.000E+00

     total cpu time spent up to now is      896.4 secs

     total energy              =     -77.19959769 Ry
     Harris-Foulkes estimate   =     -77.20020853 Ry
     estimated scf accuracy    <       0.00669583 Ry

     iteration #  4     ecut=    80.00 Ry     beta= 0.40
     Davidson diagonalization with overlap
     ethr =  1.31E-05,  avg # of iterations =  2.0

     negative rho (up, down):  1.290E-06 0.000E+00

     total cpu time spent up to now is      901.5 secs

     total energy              =     -77.19869962 Ry
     Harris-Foulkes estimate   =     -77.19976997 Ry
     estimated scf accuracy    <       0.00456456 Ry

     iteration #  5     ecut=    80.00 Ry     beta= 0.40
     Davidson diagonalization with overlap
     ethr =  8.95E-06,  avg # of iterations =  3.0

     negative rho (up, down):  2.309E-07 0.000E+00

     total cpu time spent up to now is      907.0 secs

     total energy              =     -77.19866703 Ry
     Harris-Foulkes estimate   =     -77.19924927 Ry
     estimated scf accuracy    <       0.00259866 Ry

     iteration #  6     ecut=    80.00 Ry     beta= 0.40
     Davidson diagonalization with overlap
     ethr =  5.10E-06,  avg # of iterations =  4.0

     negative rho (up, down):  1.675E-07 0.000E+00

     total cpu time spent up to now is      913.2 secs

     total energy              =     -77.19907474 Ry
     Harris-Foulkes estimate   =     -77.19913515 Ry
     estimated scf accuracy    <       0.00034716 Ry

     iteration #  7     ecut=    80.00 Ry     beta= 0.40
     Davidson diagonalization with overlap
     ethr =  6.81E-07,  avg # of iterations =  4.0

     negative rho (up, down):  1.244E-07 0.000E+00

     total cpu time spent up to now is      920.4 secs

     total energy              =     -77.19910486 Ry
     Harris-Foulkes estimate   =     -77.19918501 Ry
     estimated scf accuracy    <       0.00056313 Ry

     iteration #  8     ecut=    80.00 Ry     beta= 0.40
     Davidson diagonalization with overlap
     ethr =  6.81E-07,  avg # of iterations =  1.0

     negative rho (up, down):  6.948E-08 0.000E+00

     total cpu time spent up to now is      925.7 secs

     total energy              =     -77.19908908 Ry
     Harris-Foulkes estimate   =     -77.19912275 Ry
     estimated scf accuracy    <       0.00020718 Ry

     iteration #  9     ecut=    80.00 Ry     beta= 0.40
     Davidson diagonalization with overlap
     ethr =  4.06E-07,  avg # of iterations =  1.0

     negative rho (up, down):  3.283E-08 0.000E+00

     total cpu time spent up to now is      931.0 secs

     total energy              =     -77.19908712 Ry
     Harris-Foulkes estimate   =     -77.19910032 Ry
     estimated scf accuracy    <       0.00006298 Ry

     iteration # 10     ecut=    80.00 Ry     beta= 0.40
     Davidson diagonalization with overlap
     ethr =  1.23E-07,  avg # of iterations =  4.0

     negative rho (up, down):  3.111E-08 0.000E+00

     total cpu time spent up to now is      938.2 secs

     total energy              =     -77.19910272 Ry
     Harris-Foulkes estimate   =     -77.19910469 Ry
     estimated scf accuracy    <       0.00001914 Ry

     iteration # 11     ecut=    80.00 Ry     beta= 0.40
     Davidson diagonalization with overlap
     ethr =  3.75E-08,  avg # of iterations =  2.0

     total cpu time spent up to now is      943.8 secs

     total energy              =     -77.19910107 Ry
     Harris-Foulkes estimate   =     -77.19910397 Ry
     estimated scf accuracy    <       0.00001438 Ry

     iteration # 12     ecut=    80.00 Ry     beta= 0.40
     Davidson diagonalization with overlap
     ethr =  2.82E-08,  avg # of iterations =  3.0

     total cpu time spent up to now is      949.9 secs

     total energy              =     -77.19910244 Ry
     Harris-Foulkes estimate   =     -77.19910267 Ry
     estimated scf accuracy    <       0.00000156 Ry

     iteration # 13     ecut=    80.00 Ry     beta= 0.40
     Davidson diagonalization with overlap
     c_bands:  1 eigenvalues not converged
     ethr =  3.07E-09,  avg # of iterations = 20.0

     negative rho (up, down):  1.005E-08 0.000E+00

     total cpu time spent up to now is      958.2 secs

     total energy              =     -77.19920199 Ry
     Harris-Foulkes estimate   =     -77.19920079 Ry
     estimated scf accuracy    <       0.00047715 Ry

     iteration # 14     ecut=    80.00 Ry     beta= 0.40
     Davidson diagonalization with overlap
     ethr =  3.07E-09,  avg # of iterations =  5.0

     total cpu time spent up to now is      963.9 secs

     total energy              =     -77.19920133 Ry
     Harris-Foulkes estimate   =     -77.19920202 Ry
     estimated scf accuracy    <       0.00048327 Ry

     iteration # 15     ecut=    80.00 Ry     beta= 0.40
     Davidson diagonalization with overlap
     ethr =  3.07E-09,  avg # of iterations =  1.0

     total cpu time spent up to now is      969.3 secs

     total energy              =     -77.19920140 Ry
     Harris-Foulkes estimate   =     -77.19920137 Ry
     estimated scf accuracy    <       0.00048608 Ry

     iteration # 16     ecut=    80.00 Ry     beta= 0.40
     Davidson diagonalization with overlap
     ethr =  3.07E-09,  avg # of iterations =  1.0

     total cpu time spent up to now is      974.5 secs

     total energy              =     -77.19920103 Ry
     Harris-Foulkes estimate   =     -77.19920151 Ry
     estimated scf accuracy    <       0.00047745 Ry

     iteration # 17     ecut=    80.00 Ry     beta= 0.40
     Davidson diagonalization with overlap
     ethr =  3.07E-09,  avg # of iterations =  1.0

     total cpu time spent up to now is      979.5 secs

     total energy              =     -77.19920113 Ry
     Harris-Foulkes estimate   =     -77.19920114 Ry
     estimated scf accuracy    <       0.00048356 Ry

     iteration # 18     ecut=    80.00 Ry     beta= 0.40
     Davidson diagonalization with overlap
     ethr =  3.07E-09,  avg # of iterations =  1.0

     total cpu time spent up to now is      984.6 secs

     total energy              =     -77.19920092 Ry
     Harris-Foulkes estimate   =     -77.19920119 Ry
     estimated scf accuracy    <       0.00048221 Ry

     iteration # 19     ecut=    80.00 Ry     beta= 0.40
     Davidson diagonalization with overlap
     ethr =  3.07E-09,  avg # of iterations =  1.0

     total cpu time spent up to now is      989.6 secs

     total energy              =     -77.19920232 Ry
     Harris-Foulkes estimate   =     -77.19920096 Ry
     estimated scf accuracy    <       0.00048044 Ry

     iteration # 20     ecut=    80.00 Ry     beta= 0.40
     Davidson diagonalization with overlap
     ethr =  3.07E-09,  avg # of iterations =  1.0

     total cpu time spent up to now is      994.9 secs

     total energy              =     -77.19920351 Ry
     Harris-Foulkes estimate   =     -77.19920235 Ry
     estimated scf accuracy    <       0.00048606 Ry

     iteration # 21     ecut=    80.00 Ry     beta= 0.40
     Davidson diagonalization with overlap
     ethr =  3.07E-09,  avg # of iterations =  1.0

     total cpu time spent up to now is     1000.0 secs

     total energy              =     -77.19904752 Ry
     Harris-Foulkes estimate   =     -77.19920356 Ry
     estimated scf accuracy    <       0.00049051 Ry

[...]

     total cpu time spent up to now is     1710.4 secs

     total energy              =     -77.21239289 Ry
     Harris-Foulkes estimate   =     -77.21240597 Ry
     estimated scf accuracy    <       0.00017410 Ry

     iteration # 55     ecut=    80.00 Ry     beta= 0.40
     Davidson diagonalization with overlap
     ethr =  3.70E-09,  avg # of iterations = 16.0

     total cpu time spent up to now is     1719.6 secs

     total energy              =     -77.21239370 Ry
     Harris-Foulkes estimate   =     -77.21239800 Ry
     estimated scf accuracy    <       0.00012289 Ry

     iteration # 56     ecut=    80.00 Ry     beta= 0.40
     Davidson diagonalization with overlap
     ethr =  3.70E-09,  avg # of iterations =  2.0

     total cpu time spent up to now is     1725.1 secs

     total energy              =     -77.21238696 Ry
     Harris-Foulkes estimate   =     -77.21239392 Ry
     estimated scf accuracy    <       0.00010825 Ry

     iteration # 57     ecut=    80.00 Ry     beta= 0.40
     Davidson diagonalization with overlap
     ethr =  3.70E-09,  avg # of iterations =  8.0

     total cpu time spent up to now is     1731.7 secs

     total energy              =     -77.21238074 Ry
     Harris-Foulkes estimate   =     -77.21238740 Ry
     estimated scf accuracy    <       0.00007323 Ry

     iteration # 58     ecut=    80.00 Ry     beta= 0.40
     Davidson diagonalization with overlap
     ethr =  3.70E-09,  avg # of iterations =  4.0

     total cpu time spent up to now is     1738.8 secs

     total energy              =     -77.21238043 Ry
     Harris-Foulkes estimate   =     -77.21238130 Ry
     estimated scf accuracy    <       0.00004190 Ry

     iteration # 59     ecut=    80.00 Ry     beta= 0.40
     Davidson diagonalization with overlap
     ethr =  3.70E-09,  avg # of iterations =  1.0

     total cpu time spent up to now is     1744.1 secs

     total energy              =     -77.21237456 Ry
     Harris-Foulkes estimate   =     -77.21238045 Ry
     estimated scf accuracy    <       0.00003847 Ry

     iteration # 60     ecut=    80.00 Ry     beta= 0.40
     Davidson diagonalization with overlap
     ethr =  3.70E-09,  avg # of iterations = 20.0

     total cpu time spent up to now is     1753.3 secs

     total energy              =     -77.21237720 Ry
     Harris-Foulkes estimate   =     -77.21238998 Ry
     estimated scf accuracy    <       0.00039366 Ry

     iteration # 61     ecut=    80.00 Ry     beta= 0.40
     Davidson diagonalization with overlap
     ethr =  3.70E-09,  avg # of iterations =  2.0

     total cpu time spent up to now is     1758.6 secs

     total energy              =     -77.21235050 Ry
     Harris-Foulkes estimate   =     -77.21237747 Ry
     estimated scf accuracy    <       0.00034189 Ry

     iteration # 62     ecut=    80.00 Ry     beta= 0.40
     Davidson diagonalization with overlap
     ethr =  3.70E-09,  avg # of iterations =  7.0

     total cpu time spent up to now is     1766.3 secs

     total energy              =     -77.21235237 Ry
     Harris-Foulkes estimate   =     -77.21235227 Ry
     estimated scf accuracy    <       0.00020904 Ry

     iteration # 63     ecut=    80.00 Ry     beta= 0.40
     Davidson diagonalization with overlap
     ethr =  3.70E-09,  avg # of iterations =  1.0

     total cpu time spent up to now is     1771.3 secs

     total energy              =     -77.21229322 Ry
     Harris-Foulkes estimate   =     -77.21235239 Ry
     estimated scf accuracy    <       0.00020921 Ry

     iteration # 64     ecut=    80.00 Ry     beta= 0.40
     Davidson diagonalization with overlap
     c_bands:  1 eigenvalues not converged
     ethr =  3.70E-09,  avg # of iterations = 20.0

     total cpu time spent up to now is     1783.1 secs

     total energy              =     -77.21238103 Ry
     Harris-Foulkes estimate   =     -77.21246365 Ry
     estimated scf accuracy    <       0.00047890 Ry

     iteration # 65     ecut=    80.00 Ry     beta= 0.40
     Davidson diagonalization with overlap
     ethr =  3.70E-09,  avg # of iterations = 16.0

     total cpu time spent up to now is     1794.6 secs

     total energy              =     -77.21239023 Ry
     Harris-Foulkes estimate   =     -77.21239889 Ry
     estimated scf accuracy    <       0.00013192 Ry

     iteration # 66     ecut=    80.00 Ry     beta= 0.40
     Davidson diagonalization with overlap
     ethr =  3.70E-09,  avg # of iterations =  6.0

     total cpu time spent up to now is     1801.5 secs

     total energy              =     -77.21238670 Ry
     Harris-Foulkes estimate   =     -77.21239068 Ry
     estimated scf accuracy    <       0.00009048 Ry

     iteration # 67     ecut=    80.00 Ry     beta= 0.40
     Davidson diagonalization with overlap
     ethr =  3.70E-09,  avg # of iterations =  1.0

     total cpu time spent up to now is     1806.9 secs

     total energy              =     -77.21238628 Ry
     Harris-Foulkes estimate   =     -77.21238682 Ry
     estimated scf accuracy    <       0.00007371 Ry

     iteration # 68     ecut=    80.00 Ry     beta= 0.40
     Davidson diagonalization with overlap
     ethr =  3.70E-09,  avg # of iterations =  1.0

     total cpu time spent up to now is     1812.3 secs

     total energy              =     -77.21236545 Ry
     Harris-Foulkes estimate   =     -77.21238631 Ry
     estimated scf accuracy    <       0.00007107 Ry

     iteration # 69     ecut=    80.00 Ry     beta= 0.40
     Davidson diagonalization with overlap
     c_bands:  1 eigenvalues not converged
     ethr =  3.70E-09,  avg # of iterations = 20.0

     total cpu time spent up to now is     1824.7 secs

     total energy              =     -77.21236774 Ry
     Harris-Foulkes estimate   =     -77.21241697 Ry
     estimated scf accuracy    <       0.00053994 Ry

     iteration # 70     ecut=    80.00 Ry     beta= 0.40
     Davidson diagonalization with overlap
     ethr =  3.70E-09,  avg # of iterations = 12.0

     total cpu time spent up to now is     1834.2 secs

     total energy              =     -77.21236085 Ry
     Harris-Foulkes estimate   =     -77.21237208 Ry
     estimated scf accuracy    <       0.00030884 Ry

     iteration # 71     ecut=    80.00 Ry     beta= 0.40
     Davidson diagonalization with overlap
     ethr =  3.70E-09,  avg # of iterations =  2.0

     total cpu time spent up to now is     1839.9 secs

     total energy              =     -77.21235751 Ry
     Harris-Foulkes estimate   =     -77.21236112 Ry
     estimated scf accuracy    <       0.00025816 Ry

     iteration # 72     ecut=    80.00 Ry     beta= 0.40
     Davidson diagonalization with overlap
     ethr =  3.70E-09,  avg # of iterations =  1.0

     total cpu time spent up to now is     1845.2 secs

     total energy              =     -77.21236869 Ry
     Harris-Foulkes estimate   =     -77.21235757 Ry
     estimated scf accuracy    <       0.00024211 Ry

     iteration # 73     ecut=    80.00 Ry     beta= 0.40
     Davidson diagonalization with overlap
     ethr =  3.70E-09,  avg # of iterations =  1.0

     total cpu time spent up to now is     1850.5 secs

     total energy              =     -77.21236067 Ry
     Harris-Foulkes estimate   =     -77.21236890 Ry
     estimated scf accuracy    <       0.00028702 Ry

     iteration # 74     ecut=    80.00 Ry     beta= 0.40
     Davidson diagonalization with overlap
     ethr =  3.70E-09,  avg # of iterations =  1.0

     total cpu time spent up to now is     1855.9 secs

     total energy              =     -77.21236068 Ry
     Harris-Foulkes estimate   =     -77.21236077 Ry
     estimated scf accuracy    <       0.00025565 Ry

     iteration # 75     ecut=    80.00 Ry     beta= 0.40
     Davidson diagonalization with overlap
     ethr =  3.70E-09,  avg # of iterations =  1.0

     total cpu time spent up to now is     1860.9 secs

     total energy              =     -77.21236061 Ry
     Harris-Foulkes estimate   =     -77.21236069 Ry
     estimated scf accuracy    <       0.00025439 Ry

     iteration # 76     ecut=    80.00 Ry     beta= 0.40
     Davidson diagonalization with overlap
     ethr =  3.70E-09,  avg # of iterations =  1.0

     total cpu time spent up to now is     1865.9 secs

     total energy              =     -77.21235861 Ry
     Harris-Foulkes estimate   =     -77.21236062 Ry
     estimated scf accuracy    <       0.00025315 Ry

     iteration # 77     ecut=    80.00 Ry     beta= 0.40
     Davidson diagonalization with overlap
     ethr =  3.70E-09,  avg # of iterations =  1.0

     total cpu time spent up to now is     1871.1 secs

     total energy              =     -77.21228282 Ry
     Harris-Foulkes estimate   =     -77.21235863 Ry
     estimated scf accuracy    <       0.00024367 Ry

     iteration # 78     ecut=    80.00 Ry     beta= 0.40
     Davidson diagonalization with overlap
     c_bands:  1 eigenvalues not converged
     ethr =  3.70E-09,  avg # of iterations = 20.0

     total cpu time spent up to now is     1884.6 secs

     total energy              =     -77.21243809 Ry
     Harris-Foulkes estimate   =     -77.21249027 Ry
     estimated scf accuracy    <       0.00059851 Ry

     iteration # 79     ecut=    80.00 Ry     beta= 0.40
     Davidson diagonalization with overlap
     ethr =  3.70E-09,  avg # of iterations = 10.0

     total cpu time spent up to now is     1893.4 secs

     total energy              =     -77.21241720 Ry
     Harris-Foulkes estimate   =     -77.21244225 Ry
     estimated scf accuracy    <       0.00035314 Ry

     iteration # 80     ecut=    80.00 Ry     beta= 0.40
     Davidson diagonalization with overlap
     ethr =  3.70E-09,  avg # of iterations = 12.0

     total cpu time spent up to now is     1902.0 secs

     total energy              =     -77.21240639 Ry
     Harris-Foulkes estimate   =     -77.21241861 Ry
     estimated scf accuracy    <       0.00023429 Ry

     iteration # 81     ecut=    80.00 Ry     beta= 0.40
     Davidson diagonalization with overlap
     ethr =  3.70E-09,  avg # of iterations =  3.0

     total cpu time spent up to now is     1908.5 secs

     total energy              =     -77.21240221 Ry
     Harris-Foulkes estimate   =     -77.21240691 Ry
     estimated scf accuracy    <       0.00017496 Ry

     iteration # 82     ecut=    80.00 Ry     beta= 0.40
     Davidson diagonalization with overlap
     ethr =  3.70E-09,  avg # of iterations =  1.0

     total cpu time spent up to now is     1913.7 secs

     total energy              =     -77.21239194 Ry
     Harris-Foulkes estimate   =     -77.21240230 Ry
     estimated scf accuracy    <       0.00015482 Ry

     iteration # 83     ecut=    80.00 Ry     beta= 0.40
     Davidson diagonalization with overlap
     ethr =  3.70E-09,  avg # of iterations =  8.0

     total cpu time spent up to now is     1921.5 secs

     total energy              =     -77.21239096 Ry
     Harris-Foulkes estimate   =     -77.21239273 Ry
     estimated scf accuracy    <       0.00009771 Ry

     iteration # 84     ecut=    80.00 Ry     beta= 0.40
     Davidson diagonalization with overlap
     ethr =  3.70E-09,  avg # of iterations =  1.0

     total cpu time spent up to now is     1926.6 secs

     total energy              =     -77.21238841 Ry
     Harris-Foulkes estimate   =     -77.21239099 Ry
     estimated scf accuracy    <       0.00009131 Ry

     iteration # 85     ecut=    80.00 Ry     beta= 0.40
     Davidson diagonalization with overlap
     ethr =  3.70E-09,  avg # of iterations =  1.0

     total cpu time spent up to now is     1931.8 secs

     total energy              =     -77.21238861 Ry
     Harris-Foulkes estimate   =     -77.21238846 Ry
     estimated scf accuracy    <       0.00008041 Ry

     iteration # 86     ecut=    80.00 Ry     beta= 0.40
     Davidson diagonalization with overlap
     ethr =  3.70E-09,  avg # of iterations =  1.0

     total cpu time spent up to now is     1937.0 secs

     total energy              =     -77.21236360 Ry
     Harris-Foulkes estimate   =     -77.21238862 Ry
     estimated scf accuracy    <       0.00008055 Ry

     iteration # 87     ecut=    80.00 Ry     beta= 0.40
     Davidson diagonalization with overlap
     c_bands:  1 eigenvalues not converged
     ethr =  3.70E-09,  avg # of iterations = 20.0

     total cpu time spent up to now is     1948.9 secs

     total energy              =     -77.21237925 Ry
     Harris-Foulkes estimate   =     -77.21242226 Ry
     estimated scf accuracy    <       0.00055838 Ry

     iteration # 88     ecut=    80.00 Ry     beta= 0.40
     Davidson diagonalization with overlap
     c_bands:  1 eigenvalues not converged
     ethr =  3.70E-09,  avg # of iterations = 20.0

     total cpu time spent up to now is     1958.5 secs

     total energy              =     -77.21238248 Ry
     Harris-Foulkes estimate   =     -77.21238299 Ry
     estimated scf accuracy    <       0.00035168 Ry

     iteration # 89     ecut=    80.00 Ry     beta= 0.40
     Davidson diagonalization with overlap
     ethr =  3.70E-09,  avg # of iterations =  1.0

     total cpu time spent up to now is     1963.6 secs

     total energy              =     -77.21238231 Ry
     Harris-Foulkes estimate   =     -77.21238250 Ry
     estimated scf accuracy    <       0.00034858 Ry

     iteration # 90     ecut=    80.00 Ry     beta= 0.40
     Davidson diagonalization with overlap
     ethr =  3.70E-09,  avg # of iterations =  1.0

     total cpu time spent up to now is     1968.7 secs

     total energy              =     -77.21238294 Ry
     Harris-Foulkes estimate   =     -77.21238232 Ry
     estimated scf accuracy    <       0.00034753 Ry

     iteration # 91     ecut=    80.00 Ry     beta= 0.40
     Davidson diagonalization with overlap
     ethr =  3.70E-09,  avg # of iterations =  1.0

     total cpu time spent up to now is     1973.8 secs

     total energy              =     -77.21237389 Ry
     Harris-Foulkes estimate   =     -77.21238294 Ry
     estimated scf accuracy    <       0.00034913 Ry

     iteration # 92     ecut=    80.00 Ry     beta= 0.40
     Davidson diagonalization with overlap
     ethr =  3.70E-09,  avg # of iterations =  1.0

     total cpu time spent up to now is     1978.8 secs

     total energy              =     -77.21237103 Ry
     Harris-Foulkes estimate   =     -77.21237404 Ry
     estimated scf accuracy    <       0.00031014 Ry

     iteration # 93     ecut=    80.00 Ry     beta= 0.40
     Davidson diagonalization with overlap
     ethr =  3.70E-09,  avg # of iterations =  1.0

     total cpu time spent up to now is     1984.0 secs

     total energy              =     -77.21236260 Ry
     Harris-Foulkes estimate   =     -77.21237107 Ry
     estimated scf accuracy    <       0.00029608 Ry

     iteration # 94     ecut=    80.00 Ry     beta= 0.40
     Davidson diagonalization with overlap
     c_bands:  1 eigenvalues not converged
     ethr =  3.70E-09,  avg # of iterations = 20.0

     total cpu time spent up to now is     1991.4 secs

     total energy              =     -77.21238366 Ry
     Harris-Foulkes estimate   =     -77.21238356 Ry
     estimated scf accuracy    <       0.00005052 Ry

     iteration # 95     ecut=    80.00 Ry     beta= 0.40
     Davidson diagonalization with overlap
     ethr =  3.70E-09,  avg # of iterations =  5.0

     total cpu time spent up to now is     1996.8 secs

     total energy              =     -77.21238183 Ry
     Harris-Foulkes estimate   =     -77.21238370 Ry
     estimated scf accuracy    <       0.00005137 Ry

     iteration # 96     ecut=    80.00 Ry     beta= 0.40
     Davidson diagonalization with overlap
     ethr =  3.70E-09,  avg # of iterations =  1.0

     total cpu time spent up to now is     2001.9 secs

     total energy              =     -77.21237456 Ry
     Harris-Foulkes estimate   =     -77.21238186 Ry
     estimated scf accuracy    <       0.00004454 Ry

     iteration # 97     ecut=    80.00 Ry     beta= 0.40
     Davidson diagonalization with overlap
     ethr =  3.70E-09,  avg # of iterations = 20.0

     total cpu time spent up to now is     2011.5 secs

     total energy              =     -77.21237587 Ry
     Harris-Foulkes estimate   =     -77.21238915 Ry
     estimated scf accuracy    <       0.00039118 Ry

     iteration # 98     ecut=    80.00 Ry     beta= 0.40
     Davidson diagonalization with overlap
     ethr =  3.70E-09,  avg # of iterations =  7.0

     total cpu time spent up to now is     2017.7 secs

     total energy              =     -77.21236966 Ry
     Harris-Foulkes estimate   =     -77.21237630 Ry
     estimated scf accuracy    <       0.00032469 Ry

     iteration # 99     ecut=    80.00 Ry     beta= 0.40
     Davidson diagonalization with overlap
     ethr =  3.70E-09,  avg # of iterations =  1.0

     total cpu time spent up to now is     2022.9 secs

     total energy              =     -77.21236816 Ry
     Harris-Foulkes estimate   =     -77.21236977 Ry
     estimated scf accuracy    <       0.00029584 Ry

     iteration #100     ecut=    80.00 Ry     beta= 0.40
     Davidson diagonalization with overlap
     ethr =  3.70E-09,  avg # of iterations =  1.0

     total cpu time spent up to now is     2028.2 secs

     total energy              =     -77.21236621 Ry
     Harris-Foulkes estimate   =     -77.21236819 Ry
     estimated scf accuracy    <       0.00028823 Ry

     End of self-consistent calculation

     convergence NOT achieved after 100 iterations: stopping

     Writing output data file 9al_planar_2x2_vcr.save/
 
     init_run     :     14.41s CPU     15.12s WALL (       1 calls)
     electrons    :   1659.88s CPU   1703.78s WALL (       9 calls)
     update_pot   :    102.03s CPU    102.63s WALL (       8 calls)
     forces       :     62.34s CPU     63.23s WALL (       8 calls)
     stress       :    138.99s CPU    141.03s WALL (       8 calls)

     Called by init_run:
     wfcinit      :      3.09s CPU      3.60s WALL (       1 calls)
     potinit      :      4.33s CPU      4.40s WALL (       1 calls)
     hinit0       :      6.19s CPU      6.29s WALL (       1 calls)

     Called by electrons:
     c_bands      :   1297.42s CPU   1320.34s WALL (     248 calls)
     sum_band     :    179.87s CPU    182.65s WALL (     248 calls)
     v_of_rho     :    135.82s CPU    147.84s WALL (     257 calls)
     mix_rho      :     41.17s CPU     46.49s WALL (     248 calls)

     Called by c_bands:
     init_us_2    :     20.48s CPU     20.85s WALL (     497 calls)
     cegterg      :   1066.30s CPU   1087.21s WALL (     248 calls)

     Called by sum_band:

     Called by *egterg:
     h_psi        :    930.25s CPU    948.65s WALL (    1683 calls)
     g_psi        :      5.37s CPU      5.39s WALL (    1434 calls)
     cdiaghg      :      4.61s CPU      4.65s WALL (    1674 calls)

     Called by h_psi:
     h_psi:pot    :    928.59s CPU    945.12s WALL (    1683 calls)
     h_psi:calbec :    127.68s CPU    128.60s WALL (    1683 calls)
     vloc_psi     :    682.36s CPU    696.97s WALL (    1683 calls)
     add_vuspsi   :    118.53s CPU    119.53s WALL (    1683 calls)

     General routines
     calbec       :    133.83s CPU    134.78s WALL (    1723 calls)
     fft          :     94.90s CPU    103.85s WALL (    2780 calls)
     ffts         :      8.59s CPU      8.68s WALL (     248 calls)
     fftw         :    769.03s CPU    785.31s WALL (   52226 calls)
     davcio       :      0.01s CPU      0.10s WALL (      19 calls)
 
     Parallel routines
     fft_scatt_xy :     71.40s CPU     73.93s WALL (   55254 calls)
     fft_scatt_yz :    534.27s CPU    542.28s WALL (   55254 calls)
 
     PWSCF        : 32m58.84s CPU    33m48.59s WALL

 
   This run was terminated on:  16:43: 6  25Nov2020            

=------------------------------------------------------------------------------=
   JOB DONE.
=------------------------------------------------------------------------------=
