
     Program PWSCF v.6.3MaX starts on 26Nov2020 at  1: 3:58 

     This program is part of the open-source Quantum ESPRESSO suite
     for quantum simulation of materials; please cite
         "P. Giannozzi et al., J. Phys.:Condens. Matter 21 395502 (2009);
         "P. Giannozzi et al., J. Phys.:Condens. Matter 29 465901 (2017);
          URL http://www.quantum-espresso.org", 
     in publications or presentations arising from this work. More details at
     http://www.quantum-espresso.org/quote

     Parallel version (MPI), running on     8 processors

     MPI processes distributed on     3 nodes
     R & G space division:  proc/nbgrp/npool/nimage =       8
     Waiting for input...
     Reading input from standard input

     Current dimensions of program PWSCF are:
     Max number of different atomic species (ntypx) = 10
     Max number of k-points (npk) =  40000
     Max angular momentum in pseudopotentials (lmaxx) =  3

     Subspace diagonalization in iterative solution of the eigenvalue problem:
     a serial algorithm will be used

 
     Parallelization info
     --------------------
     sticks:   dense  smooth     PW     G-vecs:    dense   smooth      PW
     Min        3123    3123    778               448599   448599   56048
     Max        3124    3124    779               448604   448604   56052
     Sum       24985   24985   6229              3588803  3588803  448403
 


     bravais-lattice index     =            4
     lattice parameter (alat)  =      33.6810  a.u.
     unit-cell volume          =   37130.3117 (a.u.)^3
     number of atoms/cell      =           31
     number of atomic types    =            1
     number of electrons       =        93.00
     number of Kohn-Sham states=           56
     kinetic-energy cutoff     =      80.0000  Ry
     charge density cutoff     =     320.0000  Ry
     convergence threshold     =      1.0E-06
     mixing beta               =       0.4000
     number of iterations used =            8  plain     mixing
     Exchange-correlation      = PBE ( 1  4  3  4 0 0)
     nstep                     =          300


     celldm(1)=  33.680967  celldm(2)=   0.000000  celldm(3)=   1.122133
     celldm(4)=   0.000000  celldm(5)=   0.000000  celldm(6)=   0.000000

     crystal axes: (cart. coord. in units of alat)
               a(1) = (   1.000000   0.000000   0.000000 )  
               a(2) = (  -0.500000   0.866025   0.000000 )  
               a(3) = (   0.000000   0.000000   1.122133 )  

     reciprocal axes: (cart. coord. in units 2 pi/alat)
               b(1) = (  1.000000  0.577350  0.000000 )  
               b(2) = (  0.000000  1.154701  0.000000 )  
               b(3) = (  0.000000  0.000000  0.891160 )  


     PseudoPot. # 1 for Al read from file:
     ./Al.upf
     MD5 check sum: 4974d48a734c9d7d1eb6780a1419d19d
     Pseudo is Norm-conserving + core correction, Zval =  3.0
     Generated using ONCVPSP code by D. R. Hamann
     Using radial grid of 1876 points,  6 beta functions with: 
                l(1) =   0
                l(2) =   0
                l(3) =   1
                l(4) =   1
                l(5) =   2
                l(6) =   2

     atomic species   valence    mass     pseudopotential
        Al             3.00    29.98200     Al( 1.00)

      2 Sym. Ops. (no inversion) found



   Cartesian axes

     site n.     atom                  positions (alat units)
         1           Al  tau(   1) = (  -0.0000000   0.1443393   0.0000000  )
         2           Al  tau(   2) = (   0.1250015   0.0721696   0.0000000  )
         3           Al  tau(   3) = (  -0.1249997   0.3608472   0.0000000  )
         4           Al  tau(   4) = (   0.0000018   0.2886775   0.0000000  )
         5           Al  tau(   5) = (  -0.2499994   0.5773550   0.0000000  )
         6           Al  tau(   6) = (  -0.1249979   0.5051854   0.0000000  )
         7           Al  tau(   7) = (  -0.3749991   0.7938629   0.0000000  )
         8           Al  tau(   8) = (  -0.2499976   0.7216932   0.0000000  )
         9           Al  tau(   9) = (   0.2500011   0.1443403   0.0000000  )
        10           Al  tau(  10) = (   0.3750027   0.0721706   0.0000000  )
        11           Al  tau(  11) = (   0.1250014   0.3608482   0.0000000  )
        12           Al  tau(  12) = (   0.2500030   0.2886785   0.0000000  )
        13           Al  tau(  13) = (   0.0000017   0.5773560   0.0000000  )
        14           Al  tau(  14) = (   0.1250033   0.5051864   0.0000000  )
        15           Al  tau(  15) = (   0.0000036   0.7216942   0.0000000  )
        16           Al  tau(  16) = (   0.5000023   0.1443413   0.0000000  )
        17           Al  tau(  17) = (   0.6250038   0.0721717   0.0000000  )
        18           Al  tau(  18) = (   0.3750026   0.3608492   0.0000000  )
        19           Al  tau(  19) = (   0.5000041   0.2886795   0.0000000  )
        20           Al  tau(  20) = (   0.2500029   0.5773571   0.0000000  )
        21           Al  tau(  21) = (   0.3750044   0.5051874   0.0000000  )
        22           Al  tau(  22) = (   0.1250032   0.7938649   0.0000000  )
        23           Al  tau(  23) = (   0.2500047   0.7216953   0.0000000  )
        24           Al  tau(  24) = (   0.7500035   0.1443423   0.0000000  )
        25           Al  tau(  25) = (   0.8750050   0.0721727   0.0000000  )
        26           Al  tau(  26) = (   0.6250038   0.3608502   0.0000000  )
        27           Al  tau(  27) = (   0.7500053   0.2886805   0.0000000  )
        28           Al  tau(  28) = (   0.5000041   0.5773581   0.0000000  )
        29           Al  tau(  29) = (   0.6250056   0.5051884   0.0000000  )
        30           Al  tau(  30) = (   0.3750044   0.7938660   0.0000000  )
        31           Al  tau(  31) = (   0.5000059   0.7216963   0.0000000  )

     number of k points=     1  Methfessel-Paxton smearing, width (Ry)=  0.0500
                       cart. coord. in units 2pi/alat
        k(    1) = (   0.0000000   0.0000000   0.0000000), wk =   2.0000000

     Dense  grid:  3588803 G-vectors     FFT dimensions: ( 192, 192, 216)

     Estimated max dynamical RAM per process >       1.15 GB

     Estimated total dynamical RAM >       9.23 GB

     Initial potential from superposition of free atoms

     starting charge   92.92414, renormalised to   93.00000

     negative rho (up, down):  9.278E-05 0.000E+00
     Starting wfcs are  124 randomized atomic wfcs

     total cpu time spent up to now is       36.1 secs

     Self-consistent Calculation

     iteration #  1     ecut=    80.00 Ry     beta= 0.40
     Davidson diagonalization with overlap
     ethr =  1.00E-02,  avg # of iterations =  2.0

     total cpu time spent up to now is       67.1 secs

     total energy              =    -140.64269412 Ry
     Harris-Foulkes estimate   =    -141.23603411 Ry
     estimated scf accuracy    <       1.54791187 Ry

     iteration #  2     ecut=    80.00 Ry     beta= 0.40
     Davidson diagonalization with overlap
     ethr =  1.66E-03,  avg # of iterations =  5.0

     total cpu time spent up to now is       99.2 secs

     total energy              =    -140.22179555 Ry
     Harris-Foulkes estimate   =    -141.45603276 Ry
     estimated scf accuracy    <       6.70531481 Ry

     iteration #  3     ecut=    80.00 Ry     beta= 0.40
     Davidson diagonalization with overlap
     ethr =  1.66E-03,  avg # of iterations =  5.0

     total cpu time spent up to now is      124.7 secs

     total energy              =    -140.82727598 Ry
     Harris-Foulkes estimate   =    -141.02323484 Ry
     estimated scf accuracy    <       1.17666136 Ry

     iteration #  4     ecut=    80.00 Ry     beta= 0.40
     Davidson diagonalization with overlap
     ethr =  1.27E-03,  avg # of iterations =  1.0

     total cpu time spent up to now is      148.3 secs

     total energy              =    -140.90019366 Ry
     Harris-Foulkes estimate   =    -140.94393780 Ry
     estimated scf accuracy    <       0.15010442 Ry

     iteration #  5     ecut=    80.00 Ry     beta= 0.40
     Davidson diagonalization with overlap
     ethr =  1.61E-04,  avg # of iterations =  5.0

     total cpu time spent up to now is      174.7 secs

     total energy              =    -140.91285795 Ry
     Harris-Foulkes estimate   =    -140.95624428 Ry
     estimated scf accuracy    <       0.31223247 Ry

     iteration #  6     ecut=    80.00 Ry     beta= 0.40
     Davidson diagonalization with overlap
     ethr =  1.61E-04,  avg # of iterations =  3.0

     total cpu time spent up to now is      199.9 secs

     total energy              =    -140.93249881 Ry
     Harris-Foulkes estimate   =    -140.93478800 Ry
     estimated scf accuracy    <       0.01001382 Ry

     iteration #  7     ecut=    80.00 Ry     beta= 0.40
     Davidson diagonalization with overlap
     ethr =  1.08E-05,  avg # of iterations = 11.0

     total cpu time spent up to now is      242.9 secs

     total energy              =    -140.93546458 Ry
     Harris-Foulkes estimate   =    -140.93682304 Ry
     estimated scf accuracy    <       0.00658832 Ry

     iteration #  8     ecut=    80.00 Ry     beta= 0.40
     Davidson diagonalization with overlap
     ethr =  7.08E-06,  avg # of iterations =  3.0

     total cpu time spent up to now is      269.8 secs

     total energy              =    -140.93534572 Ry
     Harris-Foulkes estimate   =    -140.93700236 Ry
     estimated scf accuracy    <       0.01083821 Ry

     iteration #  9     ecut=    80.00 Ry     beta= 0.40
     Davidson diagonalization with overlap
     ethr =  7.08E-06,  avg # of iterations =  3.0

     total cpu time spent up to now is      293.7 secs

     total energy              =    -140.93588414 Ry
     Harris-Foulkes estimate   =    -140.93622657 Ry
     estimated scf accuracy    <       0.00190041 Ry

     iteration # 10     ecut=    80.00 Ry     beta= 0.40
     Davidson diagonalization with overlap
     ethr =  2.04E-06,  avg # of iterations =  4.0

     total cpu time spent up to now is      320.5 secs

     total energy              =    -140.93600587 Ry
     Harris-Foulkes estimate   =    -140.93609289 Ry
     estimated scf accuracy    <       0.00040503 Ry

     iteration # 11     ecut=    80.00 Ry     beta= 0.40
     Davidson diagonalization with overlap
     ethr =  4.36E-07,  avg # of iterations =  5.0

     total cpu time spent up to now is      355.8 secs

     total energy              =    -140.93608288 Ry
     Harris-Foulkes estimate   =    -140.93613833 Ry
     estimated scf accuracy    <       0.00032546 Ry

     iteration # 12     ecut=    80.00 Ry     beta= 0.40
     Davidson diagonalization with overlap
     ethr =  3.50E-07,  avg # of iterations =  3.0

     total cpu time spent up to now is      382.5 secs

     total energy              =    -140.93610535 Ry
     Harris-Foulkes estimate   =    -140.93612236 Ry
     estimated scf accuracy    <       0.00010057 Ry

     iteration # 13     ecut=    80.00 Ry     beta= 0.40
     Davidson diagonalization with overlap
     ethr =  1.08E-07,  avg # of iterations =  3.0

     total cpu time spent up to now is      405.4 secs

     total energy              =    -140.93611248 Ry
     Harris-Foulkes estimate   =    -140.93611496 Ry
     estimated scf accuracy    <       0.00001122 Ry

     iteration # 14     ecut=    80.00 Ry     beta= 0.40
     Davidson diagonalization with overlap
     ethr =  1.21E-08,  avg # of iterations =  6.0

     total cpu time spent up to now is      439.1 secs

     total energy              =    -140.93611449 Ry
     Harris-Foulkes estimate   =    -140.93611746 Ry
     estimated scf accuracy    <       0.00001239 Ry

     iteration # 15     ecut=    80.00 Ry     beta= 0.40
     Davidson diagonalization with overlap
     ethr =  1.21E-08,  avg # of iterations =  3.0

     total cpu time spent up to now is      464.8 secs

     total energy              =    -140.93611474 Ry
     Harris-Foulkes estimate   =    -140.93611729 Ry
     estimated scf accuracy    <       0.00001889 Ry

     iteration # 16     ecut=    80.00 Ry     beta= 0.40
     Davidson diagonalization with overlap
     ethr =  1.21E-08,  avg # of iterations =  1.0

     total cpu time spent up to now is      487.1 secs

     total energy              =    -140.93611557 Ry
     Harris-Foulkes estimate   =    -140.93611590 Ry
     estimated scf accuracy    <       0.00000161 Ry

     iteration # 17     ecut=    80.00 Ry     beta= 0.40
     Davidson diagonalization with overlap
     ethr =  1.73E-09,  avg # of iterations =  5.0

     total cpu time spent up to now is      518.4 secs

     total energy              =    -140.93611565 Ry
     Harris-Foulkes estimate   =    -140.93611586 Ry
     estimated scf accuracy    <       0.00000134 Ry

     iteration # 18     ecut=    80.00 Ry     beta= 0.40
     Davidson diagonalization with overlap
     ethr =  1.44E-09,  avg # of iterations =  3.0

     total cpu time spent up to now is      543.6 secs

     End of self-consistent calculation

          k = 0.0000 0.0000 0.0000 (448403 PWs)   bands (ev):

    -9.9529  -9.4483  -9.4330  -9.4328  -9.4259  -9.4258  -9.1458  -8.4049
    -8.4048  -8.3880  -8.3880  -8.3797  -8.3034  -8.2568  -8.2568  -7.5864
    -6.9324  -6.9324  -6.8233  -6.4865  -6.4773  -6.4772  -6.3700  -6.3700
    -5.4639  -4.8435  -4.8433  -4.8369  -4.7357  -4.7355  -4.4781  -4.4681
    -4.4428  -4.4427  -4.1225  -4.1223  -3.9779  -3.4712  -3.4687  -3.4686
    -3.4577  -3.4576  -3.4016  -3.2745  -3.2744  -3.2223  -3.2071  -2.9743
    -2.9653  -2.9652  -2.9389  -2.5198  -2.5196  -2.4501  -2.4482  -2.4314

     the Fermi energy is    -3.0910 ev

!    total energy              =    -140.93611500 Ry
     Harris-Foulkes estimate   =    -140.93611566 Ry
     estimated scf accuracy    <       0.00000075 Ry

     The total energy is the sum of the following terms:

     one-electron contribution =    -502.03622135 Ry
     hartree contribution      =     259.76343726 Ry
     xc contribution           =     -61.33573698 Ry
     ewald contribution        =     162.75341060 Ry
     smearing contrib. (-TS)   =      -0.08100453 Ry

     convergence has been achieved in  18 iterations

     Forces acting on atoms (cartesian axes, Ry/au):

     atom    1 type  1   force =    -0.00116721    0.00060974    0.00000000
     atom    2 type  1   force =     0.00114980   -0.00062113    0.00000000
     atom    3 type  1   force =    -0.00002788   -0.00135324    0.00000000
     atom    4 type  1   force =     0.00043901    0.00026460    0.00000000
     atom    5 type  1   force =     0.00061408   -0.00325890    0.00000000
     atom    6 type  1   force =     0.00000593    0.00133440    0.00000000
     atom    7 type  1   force =    -0.00253946    0.00215256    0.00000000
     atom    8 type  1   force =     0.01308587    0.00755066    0.00000000
     atom    9 type  1   force =    -0.00318067    0.00105645    0.00000000
     atom   10 type  1   force =    -0.00006180   -0.01516436    0.00000000
     atom   11 type  1   force =     0.00204235    0.00117457    0.00000000
     atom   12 type  1   force =    -0.00156573   -0.00514084    0.00000000
     atom   13 type  1   force =    -0.00065076   -0.00327752    0.00000000
     atom   14 type  1   force =    -0.00525656    0.00121240    0.00000000
     atom   15 type  1   force =    -0.01317081    0.00752377    0.00000000
     atom   16 type  1   force =     0.00320646    0.00112018    0.00000000
     atom   17 type  1   force =    -0.00108826   -0.00059921    0.00000000
     atom   18 type  1   force =     0.00000236    0.00213673    0.00000000
     atom   19 type  1   force =     0.00152185   -0.00516770    0.00000000
     atom   20 type  1   force =     0.00186669   -0.00104947    0.00000000
     atom   21 type  1   force =    -0.00000031   -0.00000824    0.00000000
     atom   22 type  1   force =     0.00259699    0.00219087    0.00000000
     atom   23 type  1   force =    -0.00371190    0.00391446    0.00000000
     atom   24 type  1   force =     0.00110512    0.00060362    0.00000000
     atom   25 type  1   force =     0.00004035   -0.00048519    0.00000000
     atom   26 type  1   force =    -0.00199873    0.00115239    0.00000000
     atom   27 type  1   force =    -0.00042016    0.00030428    0.00000000
     atom   28 type  1   force =    -0.00186474   -0.00108148    0.00000000
     atom   29 type  1   force =     0.00528090    0.00126934    0.00000000
     atom   30 type  1   force =    -0.00000443   -0.00232031    0.00000000
     atom   31 type  1   force =     0.00375165    0.00395659    0.00000000

     Total force =     0.031180     Total SCF correction =     0.000690


     Computing stress (Cartesian axis) and pressure

          total   stress  (Ry/bohr**3)                   (kbar)     P=   -0.57
  -0.00000582  -0.00000002   0.00000000         -0.86     -0.00      0.00
  -0.00000002  -0.00000576   0.00000000         -0.00     -0.85      0.00
   0.00000000   0.00000000   0.00000000          0.00      0.00      0.00


     BFGS Geometry Optimization

     number of scf cycles    =   1
     number of bfgs steps    =   0

     enthalpy new            =    -140.9361149957 Ry

     new trust radius        =       0.0151683018 bohr
     new conv_thr            =       0.0000010000 Ry

     new unit-cell volume =  37119.56873 a.u.^3 (  5500.55251 Ang^3 )
     density =      0.28059 g/cm^3

CELL_PARAMETERS (alat= 33.68096681)
   0.999854578  -0.000000491   0.000000000
  -0.499927714   0.865901002   0.000000000
   0.000000000   0.000000000   1.122132950

ATOMIC_POSITIONS (angstrom)
Al      -0.000619422   2.572540211   0.000000000
Al       2.228210479   1.285778554   0.000000000
Al      -2.227589153   6.429810381   0.000000000
Al       0.000261847   5.144555985   0.000000000
Al      -4.454822043  10.287110885   0.000000000
Al      -2.227539846   9.003430803   0.000000000
Al      -6.684063138  14.148282883   0.000000000
Al      -4.448191800  12.865028621   0.000000000
Al       4.453488079   2.572792571   0.000000000
Al       6.682742250   1.278099725   0.000000000
Al       2.228679026   6.431163851   0.000000000
Al       4.454373965   5.141711966   0.000000000
Al      -0.000318450  10.287117036   0.000000000
Al       2.224848588   9.003382259   0.000000000
Al      -0.006911398  12.865030401   0.000000000
Al       8.912040336   2.572842292   0.000000000
Al      11.137371964   1.285822164   0.000000000
Al       6.682772490   6.431688939   0.000000000
Al       8.911180426   5.141713758   0.000000000
Al       4.456186355  10.288311905   0.000000000
Al       6.682802493   9.002752420   0.000000000
Al       2.229000204  14.148335159   0.000000000
Al       4.453266141  12.863136714   0.000000000
Al      13.366101339   2.572584984   0.000000000
Al      15.593141936   1.285898494   0.000000000
Al      11.136886536   6.431184128   0.000000000
Al      13.365325727   5.144624996   0.000000000
Al       8.909384881  10.288310976   0.000000000
Al      11.140769606   9.003444397   0.000000000
Al       6.682796619  14.145964293   0.000000000
Al       8.912387927  12.863175010   0.000000000



     Writing output data file 15al_planar_2x2_vcr.save/
     NEW-OLD atomic charge density approx. for the potential

     negative rho (up, down):  2.990E-07 0.000E+00
     extrapolated charge   92.97311, renormalised to   93.00000

     total cpu time spent up to now is      641.6 secs

     Self-consistent Calculation

     iteration #  1     ecut=    80.00 Ry     beta= 0.40
     Davidson diagonalization with overlap
     ethr =  1.00E-06,  avg # of iterations =  4.0

     negative rho (up, down):  1.476E-07 0.000E+00

     total cpu time spent up to now is      675.9 secs

     total energy              =    -140.93705355 Ry
     Harris-Foulkes estimate   =    -141.07021046 Ry
     estimated scf accuracy    <       0.00011404 Ry

     iteration #  2     ecut=    80.00 Ry     beta= 0.40
     Davidson diagonalization with overlap
     ethr =  1.23E-07,  avg # of iterations = 16.0

     negative rho (up, down):  1.338E-07 0.000E+00

     total cpu time spent up to now is      719.7 secs

     total energy              =    -140.93694310 Ry
     Harris-Foulkes estimate   =    -140.93721243 Ry
     estimated scf accuracy    <       0.00217744 Ry

     iteration #  3     ecut=    80.00 Ry     beta= 0.40
     Davidson diagonalization with overlap
     ethr =  1.23E-07,  avg # of iterations =  4.0

     negative rho (up, down):  9.741E-08 0.000E+00

     total cpu time spent up to now is      746.5 secs

     total energy              =    -140.93707420 Ry
     Harris-Foulkes estimate   =    -140.93707953 Ry
     estimated scf accuracy    <       0.00003044 Ry

     iteration #  4     ecut=    80.00 Ry     beta= 0.40
     Davidson diagonalization with overlap
     ethr =  3.27E-08,  avg # of iterations =  1.0

     negative rho (up, down):  5.203E-08 0.000E+00

     total cpu time spent up to now is      768.7 secs

     total energy              =    -140.93707318 Ry
     Harris-Foulkes estimate   =    -140.93707570 Ry
     estimated scf accuracy    <       0.00001090 Ry

     iteration #  5     ecut=    80.00 Ry     beta= 0.40
     Davidson diagonalization with overlap
     ethr =  1.17E-08,  avg # of iterations =  4.0

     negative rho (up, down):  2.629E-08 0.000E+00

     total cpu time spent up to now is      798.5 secs

     total energy              =    -140.93707121 Ry
     Harris-Foulkes estimate   =    -140.93707748 Ry
     estimated scf accuracy    <       0.00003972 Ry

     iteration #  6     ecut=    80.00 Ry     beta= 0.40
     Davidson diagonalization with overlap
     ethr =  1.17E-08,  avg # of iterations =  4.0

     negative rho (up, down):  1.778E-08 0.000E+00

     total cpu time spent up to now is      825.7 secs

     total energy              =    -140.93707390 Ry
     Harris-Foulkes estimate   =    -140.93707469 Ry
     estimated scf accuracy    <       0.00000425 Ry

     iteration #  7     ecut=    80.00 Ry     beta= 0.40
     Davidson diagonalization with overlap
     ethr =  4.57E-09,  avg # of iterations =  4.0

     negative rho (up, down):  1.227E-08 0.000E+00

     total cpu time spent up to now is      851.4 secs

     total energy              =    -140.93707396 Ry
     Harris-Foulkes estimate   =    -140.93707439 Ry
     estimated scf accuracy    <       0.00000254 Ry

     iteration #  8     ecut=    80.00 Ry     beta= 0.40
     Davidson diagonalization with overlap
     ethr =  2.73E-09,  avg # of iterations =  1.0

     total cpu time spent up to now is      873.0 secs

     End of self-consistent calculation

          k = 0.0000 0.0000 0.0000 (448403 PWs)   bands (ev):

    -9.9535  -9.4492  -9.4340  -9.4332  -9.4254  -9.4247  -9.1440  -8.4059
    -8.4044  -8.3847  -8.3844  -8.3810  -8.3057  -8.2542  -8.2536  -7.5860
    -6.9325  -6.9323  -6.8234  -6.4817  -6.4782  -6.4774  -6.3722  -6.3719
    -5.4689  -4.8400  -4.8398  -4.8360  -4.7367  -4.7365  -4.4776  -4.4677
    -4.4430  -4.4429  -4.1248  -4.1244  -3.9781  -3.4718  -3.4675  -3.4667
    -3.4588  -3.4582  -3.3994  -3.2740  -3.2736  -3.2211  -3.2169  -2.9707
    -2.9637  -2.9634  -2.9408  -2.5178  -2.5177  -2.4489  -2.4471  -2.4445

     the Fermi energy is    -3.0911 ev

!    total energy              =    -140.93707386 Ry
     Harris-Foulkes estimate   =    -140.93707423 Ry
     estimated scf accuracy    <       0.00000064 Ry

     The total energy is the sum of the following terms:

     one-electron contribution =    -502.12305466 Ry
     hartree contribution      =     259.80564279 Ry
     xc contribution           =     -61.33366110 Ry
     ewald contribution        =     162.79501113 Ry
     smearing contrib. (-TS)   =      -0.08101202 Ry

     convergence has been achieved in   8 iterations

     Forces acting on atoms (cartesian axes, Ry/au):

     atom    1 type  1   force =    -0.00098925    0.00046269    0.00000000
     atom    2 type  1   force =     0.00070171   -0.00043448    0.00000000
     atom    3 type  1   force =     0.00001466   -0.00112959    0.00000000
     atom    4 type  1   force =     0.00045112    0.00031641    0.00000000
     atom    5 type  1   force =     0.00054724   -0.00213735    0.00000000
     atom    6 type  1   force =     0.00003168    0.00097072    0.00000000
     atom    7 type  1   force =    -0.00158237    0.00144293    0.00000000
     atom    8 type  1   force =     0.01293860    0.00749648    0.00000000
     atom    9 type  1   force =    -0.00204952    0.00069104    0.00000000
     atom   10 type  1   force =     0.00001958   -0.01497290    0.00000000
     atom   11 type  1   force =     0.00210188    0.00126902    0.00000000
     atom   12 type  1   force =    -0.00117137   -0.00465564    0.00000000
     atom   13 type  1   force =    -0.00062295   -0.00208870    0.00000000
     atom   14 type  1   force =    -0.00460624    0.00119189    0.00000000
     atom   15 type  1   force =    -0.01298769    0.00741272    0.00000000
     atom   16 type  1   force =     0.00202715    0.00067368    0.00000000
     atom   17 type  1   force =    -0.00069263   -0.00040056    0.00000000
     atom   18 type  1   force =     0.00005682    0.00154053    0.00000000
     atom   19 type  1   force =     0.00112364   -0.00459617    0.00000000
     atom   20 type  1   force =     0.00142470   -0.00088763    0.00000000
     atom   21 type  1   force =    -0.00000868    0.00000330    0.00000000
     atom   22 type  1   force =     0.00162042    0.00144465    0.00000000
     atom   23 type  1   force =    -0.00345273    0.00344221    0.00000000
     atom   24 type  1   force =     0.00091420    0.00055779    0.00000000
     atom   25 type  1   force =     0.00007657   -0.00068917    0.00000000
     atom   26 type  1   force =    -0.00211509    0.00125613    0.00000000
     atom   27 type  1   force =    -0.00046400    0.00025637    0.00000000
     atom   28 type  1   force =    -0.00144290   -0.00084611    0.00000000
     atom   29 type  1   force =     0.00466785    0.00120766    0.00000000
     atom   30 type  1   force =     0.00004693   -0.00225965    0.00000000
     atom   31 type  1   force =     0.00342067    0.00346173    0.00000000

     Total force =     0.029504     Total SCF correction =     0.000549


     Computing stress (Cartesian axis) and pressure

          total   stress  (Ry/bohr**3)                   (kbar)     P=   -0.58
  -0.00000593  -0.00000003   0.00000000         -0.87     -0.00      0.00
  -0.00000003  -0.00000591   0.00000000         -0.00     -0.87      0.00
   0.00000000   0.00000000  -0.00000000          0.00      0.00     -0.00


     number of scf cycles    =   2
     number of bfgs steps    =   1

     enthalpy old            =    -140.9361149957 Ry
     enthalpy new            =    -140.9370738588 Ry

     CASE: enthalpy_new < enthalpy_old


     WARNING: bfgs curvature condition failed, Theta= 0.846
     new trust radius        =       0.0227491619 bohr
     new conv_thr            =       0.0000009589 Ry

     new unit-cell volume =  37103.12233 a.u.^3 (  5498.11540 Ang^3 )
     density =      0.28071 g/cm^3

CELL_PARAMETERS (alat= 33.68096681)
   0.999632398  -0.000001385   0.000000000
  -0.499817398   0.865710170   0.000000000
   0.000000000   0.000000000   1.122132950

ATOMIC_POSITIONS (angstrom)
Al      -0.001473188   2.572392025   0.000000000
Al       2.228428113   1.285081476   0.000000000
Al      -2.227102700   6.427412615   0.000000000
Al       0.000613711   5.143654820   0.000000000
Al      -4.453381009  10.282750917   0.000000000
Al      -2.227036369   9.002344096   0.000000000
Al      -6.684182194  14.146559245   0.000000000
Al      -4.436820664  12.868202349   0.000000000
Al       4.450471591   2.572897434   0.000000000
Al       6.681244017   1.265775743   0.000000000
Al       2.229838094   6.430723504   0.000000000
Al       4.452308498   5.136684551   0.000000000
Al      -0.000835091  10.282769020   0.000000000
Al       2.220441682   9.002351288   0.000000000
Al      -0.017367058  12.868152639   0.000000000
Al       8.912080779   2.572956944   0.000000000
Al      11.134207190   1.285140137   0.000000000
Al       6.681308577   6.431697268   0.000000000
Al       8.910229870   5.136700437   0.000000000
Al       4.456476775  10.285270346   0.000000000
Al       6.681305355   9.000756417   0.000000000
Al       2.230120993  14.146617396   0.000000000
Al       4.449416281  12.863204348   0.000000000
Al      13.363924951   2.572466321   0.000000000
Al      15.589724647   1.285119143   0.000000000
Al      11.132754799   6.430722342   0.000000000
Al      13.361995193   5.143697903   0.000000000
Al       8.906098394  10.285273544   0.000000000
Al      11.142226935   9.002432087   0.000000000
Al       6.681318963  14.141006232   0.000000000
Al       8.913243633  12.863261964   0.000000000



     Writing output data file 15al_planar_2x2_vcr.save/
     NEW-OLD atomic charge density approx. for the potential

     negative rho (up, down):  4.858E-07 0.000E+00
     extrapolated charge   92.95881, renormalised to   93.00000

     total cpu time spent up to now is      968.1 secs

     Self-consistent Calculation

     iteration #  1     ecut=    80.00 Ry     beta= 0.40
     Davidson diagonalization with overlap
     ethr =  1.00E-06,  avg # of iterations =  4.0

     negative rho (up, down):  2.434E-07 0.000E+00

     total cpu time spent up to now is     1008.4 secs

     total energy              =    -140.93839389 Ry
     Harris-Foulkes estimate   =    -141.14235361 Ry
     estimated scf accuracy    <       0.00012443 Ry

     iteration #  2     ecut=    80.00 Ry     beta= 0.40
     Davidson diagonalization with overlap
     ethr =  1.34E-07,  avg # of iterations = 11.0

     negative rho (up, down):  2.179E-07 0.000E+00

     total cpu time spent up to now is     1047.5 secs

     total energy              =    -140.93835623 Ry
     Harris-Foulkes estimate   =    -140.93853956 Ry
     estimated scf accuracy    <       0.00130682 Ry

     iteration #  3     ecut=    80.00 Ry     beta= 0.40
     Davidson diagonalization with overlap
     ethr =  1.34E-07,  avg # of iterations =  4.0

     negative rho (up, down):  1.431E-07 0.000E+00

     total cpu time spent up to now is     1077.2 secs

     total energy              =    -140.93844757 Ry
     Harris-Foulkes estimate   =    -140.93845922 Ry
     estimated scf accuracy    <       0.00006645 Ry

     iteration #  4     ecut=    80.00 Ry     beta= 0.40
     Davidson diagonalization with overlap
     ethr =  7.15E-08,  avg # of iterations =  1.0

     negative rho (up, down):  8.344E-08 0.000E+00

     total cpu time spent up to now is     1101.9 secs

     total energy              =    -140.93845089 Ry
     Harris-Foulkes estimate   =    -140.93845296 Ry
     estimated scf accuracy    <       0.00000897 Ry

     iteration #  5     ecut=    80.00 Ry     beta= 0.40
     Davidson diagonalization with overlap
     ethr =  9.65E-09,  avg # of iterations =  5.0

     negative rho (up, down):  5.354E-08 0.000E+00

     total cpu time spent up to now is     1132.0 secs

     total energy              =    -140.93844991 Ry
     Harris-Foulkes estimate   =    -140.93845373 Ry
     estimated scf accuracy    <       0.00001962 Ry

     iteration #  6     ecut=    80.00 Ry     beta= 0.40
     Davidson diagonalization with overlap
     ethr =  9.65E-09,  avg # of iterations =  4.0

     negative rho (up, down):  2.204E-08 0.000E+00

     total cpu time spent up to now is     1159.8 secs

     total energy              =    -140.93845132 Ry
     Harris-Foulkes estimate   =    -140.93845289 Ry
     estimated scf accuracy    <       0.00001113 Ry

     iteration #  7     ecut=    80.00 Ry     beta= 0.40
     Davidson diagonalization with overlap
     ethr =  9.65E-09,  avg # of iterations =  3.0

     negative rho (up, down):  1.079E-08 0.000E+00

     total cpu time spent up to now is     1185.1 secs

     total energy              =    -140.93845190 Ry
     Harris-Foulkes estimate   =    -140.93845219 Ry
     estimated scf accuracy    <       0.00000147 Ry

     iteration #  8     ecut=    80.00 Ry     beta= 0.40
     Davidson diagonalization with overlap
     ethr =  1.58E-09,  avg # of iterations =  5.0

     total cpu time spent up to now is     1214.3 secs

     total energy              =    -140.93845186 Ry
     Harris-Foulkes estimate   =    -140.93845216 Ry
     estimated scf accuracy    <       0.00000206 Ry

     iteration #  9     ecut=    80.00 Ry     beta= 0.40
     Davidson diagonalization with overlap
     ethr =  1.58E-09,  avg # of iterations =  3.0

     total cpu time spent up to now is     1238.8 secs

     End of self-consistent calculation

          k = 0.0000 0.0000 0.0000 (448403 PWs)   bands (ev):

    -9.9544  -9.4494  -9.4364  -9.4357  -9.4238  -9.4231  -9.1416  -8.4051
    -8.4043  -8.3857  -8.3802  -8.3791  -8.3081  -8.2504  -8.2499  -7.5846
    -6.9325  -6.9323  -6.8233  -6.4789  -6.4781  -6.4761  -6.3752  -6.3748
    -5.4770  -4.8348  -4.8344  -4.8336  -4.7379  -4.7377  -4.4756  -4.4665
    -4.4436  -4.4435  -4.1290  -4.1288  -3.9785  -3.4715  -3.4670  -3.4663
    -3.4592  -3.4586  -3.3967  -3.2723  -3.2720  -3.2324  -3.2195  -2.9657
    -2.9612  -2.9609  -2.9435  -2.5140  -2.5139  -2.4468  -2.4452  -2.4411

     the Fermi energy is    -3.0909 ev

!    total energy              =    -140.93845189 Ry
     Harris-Foulkes estimate   =    -140.93845192 Ry
     estimated scf accuracy    <       0.00000012 Ry

     The total energy is the sum of the following terms:

     one-electron contribution =    -502.26001304 Ry
     hartree contribution      =     259.87382272 Ry
     xc contribution           =     -61.33142262 Ry
     ewald contribution        =     162.85962131 Ry
     smearing contrib. (-TS)   =      -0.08046026 Ry

     convergence has been achieved in   9 iterations

     Forces acting on atoms (cartesian axes, Ry/au):

     atom    1 type  1   force =    -0.00075854    0.00023386    0.00000000
     atom    2 type  1   force =     0.00027506   -0.00018468    0.00000000
     atom    3 type  1   force =    -0.00005284   -0.00081025    0.00000000
     atom    4 type  1   force =     0.00067666    0.00049213    0.00000000
     atom    5 type  1   force =     0.00062572   -0.00031432    0.00000000
     atom    6 type  1   force =    -0.00002887    0.00039288    0.00000000
     atom    7 type  1   force =     0.00000726    0.00063919    0.00000000
     atom    8 type  1   force =     0.01281812    0.00738069    0.00000000
     atom    9 type  1   force =    -0.00047909   -0.00040371    0.00000000
     atom   10 type  1   force =    -0.00003340   -0.01473783    0.00000000
     atom   11 type  1   force =     0.00208286    0.00122118    0.00000000
     atom   12 type  1   force =    -0.00067902   -0.00357862    0.00000000
     atom   13 type  1   force =    -0.00059516   -0.00021367    0.00000000
     atom   14 type  1   force =    -0.00351772    0.00118140    0.00000000
     atom   15 type  1   force =    -0.01281353    0.00727749    0.00000000
     atom   16 type  1   force =     0.00051587   -0.00041085    0.00000000
     atom   17 type  1   force =    -0.00030306   -0.00015476    0.00000000
     atom   18 type  1   force =     0.00006761    0.00087267    0.00000000
     atom   19 type  1   force =     0.00063892   -0.00349691    0.00000000
     atom   20 type  1   force =     0.00082596   -0.00040830    0.00000000
     atom   21 type  1   force =    -0.00000562   -0.00001629    0.00000000
     atom   22 type  1   force =    -0.00002333    0.00062440    0.00000000
     atom   23 type  1   force =    -0.00275329    0.00239003    0.00000000
     atom   24 type  1   force =     0.00070192    0.00032475    0.00000000
     atom   25 type  1   force =     0.00007658   -0.00079989    0.00000000
     atom   26 type  1   force =    -0.00209455    0.00120750    0.00000000
     atom   27 type  1   force =    -0.00064503    0.00050130    0.00000000
     atom   28 type  1   force =    -0.00083675   -0.00044417    0.00000000
     atom   29 type  1   force =     0.00353095    0.00115142    0.00000000
     atom   30 type  1   force =    -0.00000481   -0.00236755    0.00000000
     atom   31 type  1   force =     0.00278111    0.00245092    0.00000000

     Total force =     0.027572     Total SCF correction =     0.000160


     Computing stress (Cartesian axis) and pressure

          total   stress  (Ry/bohr**3)                   (kbar)     P=   -0.60
  -0.00000615  -0.00000002   0.00000000         -0.91     -0.00      0.00
  -0.00000002  -0.00000603   0.00000000         -0.00     -0.89      0.00
   0.00000000   0.00000000   0.00000002          0.00      0.00      0.00


     number of scf cycles    =   3
     number of bfgs steps    =   2

     enthalpy old            =    -140.9370738588 Ry
     enthalpy new            =    -140.9384518896 Ry

     CASE: enthalpy_new < enthalpy_old

     new trust radius        =       0.0341162048 bohr
     new conv_thr            =       0.0000010000 Ry

     new unit-cell volume =  37077.88053 a.u.^3 (  5494.37496 Ang^3 )
     density =      0.28090 g/cm^3

CELL_PARAMETERS (alat= 33.68096681)
   0.999289568  -0.000002625   0.000000000
  -0.499647057   0.865418635   0.000000000
   0.000000000   0.000000000   1.122132950

ATOMIC_POSITIONS (angstrom)
Al      -0.002617649   2.572012776   0.000000000
Al       2.228480328   1.284181498   0.000000000
Al      -2.226399804   6.423968675   0.000000000
Al       0.001298588   5.142390707   0.000000000
Al      -4.451112993  10.277292054   0.000000000
Al      -2.226301644   9.000299992   0.000000000
Al      -6.683294205  14.143402598   0.000000000
Al      -4.419677998  12.872875735   0.000000000
Al       4.446876576   2.572326246   0.000000000
Al       6.678891451   1.247297352   0.000000000
Al       2.231557480   6.429996417   0.000000000
Al       4.449465580   5.129770852   0.000000000
Al      -0.001597518  10.277359683   0.000000000
Al       2.214465896   9.000755414   0.000000000
Al      -0.033057768  12.872739282   0.000000000
Al       8.911127845   2.572413292   0.000000000
Al      11.129585230   1.284260382   0.000000000
Al       6.679053535   6.431272038   0.000000000
Al       8.908427068   5.129817999   0.000000000
Al       4.456506649  10.280953297   0.000000000
Al       6.678999246   8.997694548   0.000000000
Al       2.230745905  14.143461775   0.000000000
Al       4.444027687  12.862575711   0.000000000
Al      13.360409683   2.572123660   0.000000000
Al      15.584447939   1.283876623   0.000000000
Al      11.126454766   6.429962712   0.000000000
Al      13.356747920   5.142449697   0.000000000
Al       8.901454985  10.280905771   0.000000000
Al      11.143617418   9.000836944   0.000000000
Al       6.679001685  14.133386744   0.000000000
Al       8.914061216  12.862692618   0.000000000



     Writing output data file 15al_planar_2x2_vcr.save/
     NEW-OLD atomic charge density approx. for the potential

     negative rho (up, down):  7.563E-07 0.000E+00
     extrapolated charge   92.93674, renormalised to   93.00000

     total cpu time spent up to now is     1334.4 secs

     Self-consistent Calculation

     iteration #  1     ecut=    80.00 Ry     beta= 0.40
     Davidson diagonalization with overlap
     ethr =  1.00E-06,  avg # of iterations =  5.0

     negative rho (up, down):  3.847E-07 0.000E+00

     total cpu time spent up to now is     1373.1 secs

     total energy              =    -140.94022363 Ry
     Harris-Foulkes estimate   =    -141.25360103 Ry
     estimated scf accuracy    <       0.00018084 Ry

     iteration #  2     ecut=    80.00 Ry     beta= 0.40
     Davidson diagonalization with overlap
     ethr =  1.94E-07,  avg # of iterations =  5.0

     negative rho (up, down):  3.456E-07 0.000E+00

     total cpu time spent up to now is     1407.3 secs

     total energy              =    -140.94022213 Ry
     Harris-Foulkes estimate   =    -140.94045047 Ry
     estimated scf accuracy    <       0.00169892 Ry

     iteration #  3     ecut=    80.00 Ry     beta= 0.40
     Davidson diagonalization with overlap
     ethr =  1.94E-07,  avg # of iterations =  4.0

     negative rho (up, down):  2.254E-07 0.000E+00

     total cpu time spent up to now is     1435.1 secs

     total energy              =    -140.94032645 Ry
     Harris-Foulkes estimate   =    -140.94033924 Ry
     estimated scf accuracy    <       0.00005689 Ry

     iteration #  4     ecut=    80.00 Ry     beta= 0.40
     Davidson diagonalization with overlap
     ethr =  6.12E-08,  avg # of iterations =  3.0

     negative rho (up, down):  1.447E-07 0.000E+00

     total cpu time spent up to now is     1462.7 secs

     total energy              =    -140.94032679 Ry
     Harris-Foulkes estimate   =    -140.94033273 Ry
     estimated scf accuracy    <       0.00002471 Ry

     iteration #  5     ecut=    80.00 Ry     beta= 0.40
     Davidson diagonalization with overlap
     ethr =  2.66E-08,  avg # of iterations =  4.0

     negative rho (up, down):  6.950E-08 0.000E+00

     total cpu time spent up to now is     1489.3 secs

     total energy              =    -140.94032363 Ry
     Harris-Foulkes estimate   =    -140.94033618 Ry
     estimated scf accuracy    <       0.00007840 Ry

     iteration #  6     ecut=    80.00 Ry     beta= 0.40
     Davidson diagonalization with overlap
     ethr =  2.66E-08,  avg # of iterations =  4.0

     negative rho (up, down):  2.710E-08 0.000E+00

     total cpu time spent up to now is     1515.6 secs

     total energy              =    -140.94032944 Ry
     Harris-Foulkes estimate   =    -140.94033139 Ry
     estimated scf accuracy    <       0.00001191 Ry

     iteration #  7     ecut=    80.00 Ry     beta= 0.40
     Davidson diagonalization with overlap
     ethr =  1.28E-08,  avg # of iterations =  3.0

     negative rho (up, down):  1.873E-08 0.000E+00

     total cpu time spent up to now is     1539.6 secs

     total energy              =    -140.94033016 Ry
     Harris-Foulkes estimate   =    -140.94033049 Ry
     estimated scf accuracy    <       0.00000194 Ry

     iteration #  8     ecut=    80.00 Ry     beta= 0.40
     Davidson diagonalization with overlap
     ethr =  2.09E-09,  avg # of iterations =  4.0

     total cpu time spent up to now is     1568.9 secs

     total energy              =    -140.94033026 Ry
     Harris-Foulkes estimate   =    -140.94033049 Ry
     estimated scf accuracy    <       0.00000156 Ry

     iteration #  9     ecut=    80.00 Ry     beta= 0.40
     Davidson diagonalization with overlap
     ethr =  1.68E-09,  avg # of iterations =  2.0

     total cpu time spent up to now is     1593.0 secs

     End of self-consistent calculation

          k = 0.0000 0.0000 0.0000 (448403 PWs)   bands (ev):

    -9.9553  -9.4502  -9.4395  -9.4389  -9.4208  -9.4202  -9.1382  -8.4039
    -8.4032  -8.3910  -8.3742  -8.3733  -8.3109  -8.2443  -8.2438  -7.5823
    -6.9324  -6.9322  -6.8233  -6.4790  -6.4782  -6.4682  -6.3782  -6.3777
    -5.4883  -4.8298  -4.8275  -4.8272  -4.7384  -4.7381  -4.4728  -4.4644
    -4.4442  -4.4441  -4.1347  -4.1346  -3.9788  -3.4716  -3.4673  -3.4667
    -3.4580  -3.4574  -3.3927  -3.2693  -3.2691  -3.2550  -3.2175  -2.9602
    -2.9573  -2.9569  -2.9439  -2.5085  -2.5084  -2.4448  -2.4414  -2.4354

     the Fermi energy is    -3.0902 ev

!    total energy              =    -140.94033001 Ry
     Harris-Foulkes estimate   =    -140.94033036 Ry
     estimated scf accuracy    <       0.00000047 Ry

     The total energy is the sum of the following terms:

     one-electron contribution =    -502.47037362 Ry
     hartree contribution      =     259.97790529 Ry
     xc contribution           =     -61.32805829 Ry
     ewald contribution        =     162.95973299 Ry
     smearing contrib. (-TS)   =      -0.07953638 Ry

     convergence has been achieved in   9 iterations

     Forces acting on atoms (cartesian axes, Ry/au):

     atom    1 type  1   force =    -0.00036231    0.00005564    0.00000000
     atom    2 type  1   force =    -0.00021082    0.00010288    0.00000000
     atom    3 type  1   force =    -0.00004416   -0.00035929    0.00000000
     atom    4 type  1   force =     0.00104936    0.00067490    0.00000000
     atom    5 type  1   force =     0.00074309    0.00205157    0.00000000
     atom    6 type  1   force =    -0.00000685   -0.00021914    0.00000000
     atom    7 type  1   force =     0.00213251   -0.00037704    0.00000000
     atom    8 type  1   force =     0.01276198    0.00734701    0.00000000
     atom    9 type  1   force =     0.00147944   -0.00169496    0.00000000
     atom   10 type  1   force =    -0.00002441   -0.01464807    0.00000000
     atom   11 type  1   force =     0.00200857    0.00116162    0.00000000
     atom   12 type  1   force =    -0.00004217   -0.00229060    0.00000000
     atom   13 type  1   force =    -0.00072225    0.00212008    0.00000000
     atom   14 type  1   force =    -0.00205798    0.00109823    0.00000000
     atom   15 type  1   force =    -0.01274575    0.00726933    0.00000000
     atom   16 type  1   force =    -0.00146374   -0.00171217    0.00000000
     atom   17 type  1   force =     0.00014985    0.00010805    0.00000000
     atom   18 type  1   force =     0.00005621   -0.00001782    0.00000000
     atom   19 type  1   force =     0.00003660   -0.00219513    0.00000000
     atom   20 type  1   force =     0.00002749    0.00004795    0.00000000
     atom   21 type  1   force =    -0.00000843   -0.00002748    0.00000000
     atom   22 type  1   force =    -0.00216039   -0.00041690    0.00000000
     atom   23 type  1   force =    -0.00190389    0.00116911    0.00000000
     atom   24 type  1   force =     0.00036798    0.00014656    0.00000000
     atom   25 type  1   force =     0.00006244   -0.00121771    0.00000000
     atom   26 type  1   force =    -0.00203563    0.00115051    0.00000000
     atom   27 type  1   force =    -0.00102730    0.00069826    0.00000000
     atom   28 type  1   force =    -0.00002707    0.00003576    0.00000000
     atom   29 type  1   force =     0.00204491    0.00105263    0.00000000
     atom   30 type  1   force =    -0.00000142   -0.00230758    0.00000000
     atom   31 type  1   force =     0.00192414    0.00119381    0.00000000

     Total force =     0.026989     Total SCF correction =     0.000531


     Computing stress (Cartesian axis) and pressure

          total   stress  (Ry/bohr**3)                   (kbar)     P=   -0.62
  -0.00000639  -0.00000003   0.00000000         -0.94     -0.00      0.00
  -0.00000003  -0.00000628   0.00000000         -0.00     -0.92      0.00
   0.00000000   0.00000000   0.00000002          0.00      0.00      0.00


     number of scf cycles    =   4
     number of bfgs steps    =   3

     enthalpy old            =    -140.9384518896 Ry
     enthalpy new            =    -140.9403300061 Ry

     CASE: enthalpy_new < enthalpy_old

     new trust radius        =       0.0511567716 bohr
     new conv_thr            =       0.0000010000 Ry

     new unit-cell volume =  37039.56911 a.u.^3 (  5488.69779 Ang^3 )
     density =      0.28119 g/cm^3

CELL_PARAMETERS (alat= 33.68096681)
   0.998769412  -0.000004570   0.000000000
  -0.499388663   0.864975639   0.000000000
   0.000000000   0.000000000   1.122132950

ATOMIC_POSITIONS (angstrom)
Al      -0.004110331   2.571347275   0.000000000
Al       2.228306854   1.282970133   0.000000000
Al      -2.225321328   6.419006566   0.000000000
Al       0.002544652   5.140555928   0.000000000
Al      -4.447612850  10.270306746   0.000000000
Al      -2.225166390   8.996864355   0.000000000
Al      -6.680772907  14.138047351   0.000000000
Al      -4.393968877  12.879786620   0.000000000
Al       4.442486963   2.570754086   0.000000000
Al       6.675330036   1.219607726   0.000000000
Al       2.234067989   6.428820481   0.000000000
Al       4.445510389   5.120060882   0.000000000
Al      -0.002832117  10.270414908   0.000000000
Al       2.206284976   8.998247126   0.000000000
Al      -0.056566647  12.879543832   0.000000000
Al       8.908597776   2.570879945   0.000000000
Al      11.122811407   1.283061583   0.000000000
Al       6.675617766   6.430122078   0.000000000
Al       8.905356384   5.120154430   0.000000000
Al       4.456096856  10.274642239   0.000000000
Al       6.675498161   8.993035742   0.000000000
Al       2.230518426  14.138095328   0.000000000
Al       4.436382198  12.860894784   0.000000000
Al      13.354873793   2.571504898   0.000000000
Al      15.576428316   1.281752944   0.000000000
Al      11.116986845   6.428738402   0.000000000
Al      13.348568471   5.140645564   0.000000000
Al       8.894871794  10.274538805   0.000000000
Al      11.144825680   8.998327455   0.000000000
Al       6.675490277  14.121916407   0.000000000
Al       8.914761379  12.861072143   0.000000000



     Writing output data file 15al_planar_2x2_vcr.save/
     NEW-OLD atomic charge density approx. for the potential

     negative rho (up, down):  1.155E-06 0.000E+00
     extrapolated charge   92.90389, renormalised to   93.00000

     total cpu time spent up to now is     1687.5 secs

     Self-consistent Calculation

     iteration #  1     ecut=    80.00 Ry     beta= 0.40
     Davidson diagonalization with overlap
     ethr =  1.00E-06,  avg # of iterations =  6.0

     negative rho (up, down):  5.972E-07 0.000E+00

     total cpu time spent up to now is     1733.0 secs

     total energy              =    -140.94272939 Ry
     Harris-Foulkes estimate   =    -141.41919845 Ry
     estimated scf accuracy    <       0.00035363 Ry

     iteration #  2     ecut=    80.00 Ry     beta= 0.40
     Davidson diagonalization with overlap
     ethr =  3.80E-07,  avg # of iterations =  5.0

     negative rho (up, down):  5.337E-07 0.000E+00

     total cpu time spent up to now is     1766.9 secs

     total energy              =    -140.94274769 Ry
     Harris-Foulkes estimate   =    -140.94315188 Ry
     estimated scf accuracy    <       0.00286742 Ry

     iteration #  3     ecut=    80.00 Ry     beta= 0.40
     Davidson diagonalization with overlap
     ethr =  3.80E-07,  avg # of iterations =  4.0

     negative rho (up, down):  3.571E-07 0.000E+00

     total cpu time spent up to now is     1795.4 secs

     total energy              =    -140.94293431 Ry
     Harris-Foulkes estimate   =    -140.94296327 Ry
     estimated scf accuracy    <       0.00013888 Ry

     iteration #  4     ecut=    80.00 Ry     beta= 0.40
     Davidson diagonalization with overlap
     ethr =  1.49E-07,  avg # of iterations =  1.0

     negative rho (up, down):  2.263E-07 0.000E+00

     total cpu time spent up to now is     1818.2 secs

     total energy              =    -140.94293586 Ry
     Harris-Foulkes estimate   =    -140.94294708 Ry
     estimated scf accuracy    <       0.00004786 Ry

     iteration #  5     ecut=    80.00 Ry     beta= 0.40
     Davidson diagonalization with overlap
     ethr =  5.15E-08,  avg # of iterations =  5.0

     negative rho (up, down):  9.890E-08 0.000E+00

     total cpu time spent up to now is     1843.4 secs

     total energy              =    -140.94292731 Ry
     Harris-Foulkes estimate   =    -140.94295526 Ry
     estimated scf accuracy    <       0.00018063 Ry

     iteration #  6     ecut=    80.00 Ry     beta= 0.40
     Davidson diagonalization with overlap
     ethr =  5.15E-08,  avg # of iterations =  4.0

     negative rho (up, down):  4.191E-08 0.000E+00

     total cpu time spent up to now is     1870.3 secs

     total energy              =    -140.94294061 Ry
     Harris-Foulkes estimate   =    -140.94294417 Ry
     estimated scf accuracy    <       0.00002409 Ry

     iteration #  7     ecut=    80.00 Ry     beta= 0.40
     Davidson diagonalization with overlap
     ethr =  2.59E-08,  avg # of iterations =  3.0

     negative rho (up, down):  2.782E-08 0.000E+00

     total cpu time spent up to now is     1895.5 secs

     total energy              =    -140.94294105 Ry
     Harris-Foulkes estimate   =    -140.94294175 Ry
     estimated scf accuracy    <       0.00000483 Ry

     iteration #  8     ecut=    80.00 Ry     beta= 0.40
     Davidson diagonalization with overlap
     ethr =  5.19E-09,  avg # of iterations =  4.0

     total cpu time spent up to now is     1922.4 secs

     total energy              =    -140.94294111 Ry
     Harris-Foulkes estimate   =    -140.94294177 Ry
     estimated scf accuracy    <       0.00000400 Ry

     iteration #  9     ecut=    80.00 Ry     beta= 0.40
     Davidson diagonalization with overlap
     ethr =  4.31E-09,  avg # of iterations =  3.0

     total cpu time spent up to now is     1947.7 secs

     total energy              =    -140.94294119 Ry
     Harris-Foulkes estimate   =    -140.94294136 Ry
     estimated scf accuracy    <       0.00000152 Ry

     iteration # 10     ecut=    80.00 Ry     beta= 0.40
     Davidson diagonalization with overlap
     ethr =  1.63E-09,  avg # of iterations =  4.0

     total cpu time spent up to now is     1972.9 secs

     total energy              =    -140.94294067 Ry
     Harris-Foulkes estimate   =    -140.94294088 Ry
     estimated scf accuracy    <       0.00000198 Ry

     iteration # 11     ecut=    80.00 Ry     beta= 0.40
     Davidson diagonalization with overlap
     ethr =  1.63E-09,  avg # of iterations =  1.0

     total cpu time spent up to now is     1995.8 secs

     End of self-consistent calculation

          k = 0.0000 0.0000 0.0000 (448403 PWs)   bands (ev):

    -9.9569  -9.4516  -9.4441  -9.4437  -9.4164  -9.4157  -9.1341  -8.4027
    -8.4022  -8.3973  -8.3675  -8.3665  -8.3142  -8.2345  -8.2340  -7.5800
    -6.9327  -6.9323  -6.8237  -6.4786  -6.4779  -6.4574  -6.3818  -6.3811
    -5.5048  -4.8246  -4.8177  -4.8176  -4.7379  -4.7377  -4.4691  -4.4615
    -4.4448  -4.4447  -4.1431  -4.1430  -3.9793  -3.4718  -3.4691  -3.4685
    -3.4549  -3.4542  -3.3866  -3.2892  -3.2651  -3.2648  -3.2152  -2.9603
    -2.9514  -2.9510  -2.9352  -2.5010  -2.5007  -2.4428  -2.4372  -2.4277

     the Fermi energy is    -3.0893 ev

!    total energy              =    -140.94294012 Ry
     Harris-Foulkes estimate   =    -140.94294060 Ry
     estimated scf accuracy    <       0.00000055 Ry

     The total energy is the sum of the following terms:

     one-electron contribution =    -502.79119651 Ry
     hartree contribution      =     260.13604162 Ry
     xc contribution           =     -61.32339749 Ry
     ewald contribution        =     163.11365575 Ry
     smearing contrib. (-TS)   =      -0.07804350 Ry

     convergence has been achieved in  11 iterations

     Forces acting on atoms (cartesian axes, Ry/au):

     atom    1 type  1   force =     0.00009286   -0.00014171    0.00000000
     atom    2 type  1   force =    -0.00084398    0.00043084    0.00000000
     atom    3 type  1   force =    -0.00003829    0.00018649    0.00000000
     atom    4 type  1   force =     0.00150370    0.00092385    0.00000000
     atom    5 type  1   force =     0.00093316    0.00516930    0.00000000
     atom    6 type  1   force =    -0.00002425   -0.00098337    0.00000000
     atom    7 type  1   force =     0.00498030   -0.00176704    0.00000000
     atom    8 type  1   force =     0.01284687    0.00739899    0.00000000
     atom    9 type  1   force =     0.00410960   -0.00339190    0.00000000
     atom   10 type  1   force =    -0.00000043   -0.01474670    0.00000000
     atom   11 type  1   force =     0.00189369    0.00110699    0.00000000
     atom   12 type  1   force =     0.00073202   -0.00059110    0.00000000
     atom   13 type  1   force =    -0.00086547    0.00523582    0.00000000
     atom   14 type  1   force =    -0.00018663    0.00095524    0.00000000
     atom   15 type  1   force =    -0.01278518    0.00734986    0.00000000
     atom   16 type  1   force =    -0.00407466   -0.00345337    0.00000000
     atom   17 type  1   force =     0.00073509    0.00041896    0.00000000
     atom   18 type  1   force =     0.00004728   -0.00115741    0.00000000
     atom   19 type  1   force =    -0.00072149   -0.00049202    0.00000000
     atom   20 type  1   force =    -0.00100448    0.00063160    0.00000000
     atom   21 type  1   force =    -0.00000873   -0.00002034    0.00000000
     atom   22 type  1   force =    -0.00502544   -0.00180736    0.00000000
     atom   23 type  1   force =    -0.00078405   -0.00038079    0.00000000
     atom   24 type  1   force =    -0.00005105   -0.00005610    0.00000000
     atom   25 type  1   force =     0.00003172   -0.00173245    0.00000000
     atom   26 type  1   force =    -0.00195038    0.00109771    0.00000000
     atom   27 type  1   force =    -0.00146861    0.00092595    0.00000000
     atom   28 type  1   force =     0.00100985    0.00062039    0.00000000
     atom   29 type  1   force =     0.00014332    0.00090241    0.00000000
     atom   30 type  1   force =    -0.00002610   -0.00224695    0.00000000
     atom   31 type  1   force =     0.00079974   -0.00038577    0.00000000

     Total force =     0.029320     Total SCF correction =     0.000613


     Computing stress (Cartesian axis) and pressure

          total   stress  (Ry/bohr**3)                   (kbar)     P=   -0.66
  -0.00000673  -0.00000002   0.00000000         -0.99     -0.00      0.00
  -0.00000002  -0.00000663   0.00000000         -0.00     -0.98      0.00
   0.00000000   0.00000000   0.00000001          0.00      0.00      0.00


     number of scf cycles    =   5
     number of bfgs steps    =   4

     enthalpy old            =    -140.9403300061 Ry
     enthalpy new            =    -140.9429401241 Ry

     CASE: enthalpy_new < enthalpy_old

     new trust radius        =       0.0766954851 bohr
     new conv_thr            =       0.0000010000 Ry

     new unit-cell volume =  36981.74292 a.u.^3 (  5480.12883 Ang^3 )
     density =      0.28163 g/cm^3

CELL_PARAMETERS (alat= 33.68096681)
   0.997984246  -0.000007349   0.000000000
  -0.498998487   0.864306089   0.000000000
   0.000000000   0.000000000   1.122132950

ATOMIC_POSITIONS (angstrom)
Al      -0.006144264   2.570270807   0.000000000
Al       2.227780772   1.281273091   0.000000000
Al      -2.223682489   6.411767089   0.000000000
Al       0.004620342   5.137877842   0.000000000
Al      -4.442243517  10.261141597   0.000000000
Al      -2.223459057   8.991348602   0.000000000
Al      -6.675684561  14.129324595   0.000000000
Al      -4.355427176  12.890058440   0.000000000
Al       4.437027356   2.567636072   0.000000000
Al       6.669971098   1.178099142   0.000000000
Al       2.237734388   6.426978538   0.000000000
Al       4.439882116   5.106250144   0.000000000
Al      -0.004758327  10.261300764   0.000000000
Al       2.194860490   8.994341601   0.000000000
Al      -0.091764858  12.889680528   0.000000000
Al       8.903623387   2.567798232   0.000000000
Al      11.112833780   1.281376209   0.000000000
Al       6.670421249   6.427869669   0.000000000
Al       8.900386792   5.106403562   0.000000000
Al       4.455006586  10.265360404   0.000000000
Al       6.670215293   8.986004832   0.000000000
Al       2.228896258  14.129365577   0.000000000
Al       4.425420261  12.857613556   0.000000000
Al      13.346313651   2.570488519   0.000000000
Al      15.564300332   1.278323424   0.000000000
Al      11.102807274   6.426825537   0.000000000
Al      13.336034017   5.137997523   0.000000000
Al       8.885411836  10.265176426   0.000000000
Al      11.145715216   8.994428666   0.000000000
Al       6.670178738  14.104697177   0.000000000
Al       8.915237986  12.857863139   0.000000000



     Writing output data file 15al_planar_2x2_vcr.save/
     NEW-OLD atomic charge density approx. for the potential

     negative rho (up, down):  1.737E-06 0.000E+00
     extrapolated charge   92.85470, renormalised to   93.00000

     total cpu time spent up to now is     2091.4 secs

     Self-consistent Calculation

     iteration #  1     ecut=    80.00 Ry     beta= 0.40
     Davidson diagonalization with overlap
     ethr =  1.00E-06,  avg # of iterations =  8.0

     negative rho (up, down):  9.111E-07 0.000E+00

     total cpu time spent up to now is     2140.6 secs

     total energy              =    -140.94617786 Ry
     Harris-Foulkes estimate   =    -141.66728566 Ry
     estimated scf accuracy    <       0.00074664 Ry

     iteration #  2     ecut=    80.00 Ry     beta= 0.40
     Davidson diagonalization with overlap
     ethr =  8.03E-07,  avg # of iterations = 13.0

     negative rho (up, down):  8.178E-07 0.000E+00

     total cpu time spent up to now is     2181.3 secs

     total energy              =    -140.94620025 Ry
     Harris-Foulkes estimate   =    -140.94709532 Ry
     estimated scf accuracy    <       0.00641785 Ry

     iteration #  3     ecut=    80.00 Ry     beta= 0.40
     Davidson diagonalization with overlap
     ethr =  8.03E-07,  avg # of iterations =  5.0

     negative rho (up, down):  5.626E-07 0.000E+00

     total cpu time spent up to now is     2211.5 secs

     total energy              =    -140.94661022 Ry
     Harris-Foulkes estimate   =    -140.94667595 Ry
     estimated scf accuracy    <       0.00032032 Ry

     iteration #  4     ecut=    80.00 Ry     beta= 0.40
     Davidson diagonalization with overlap
     ethr =  3.44E-07,  avg # of iterations =  1.0

     negative rho (up, down):  3.839E-07 0.000E+00

     total cpu time spent up to now is     2235.3 secs

     total energy              =    -140.94661471 Ry
     Harris-Foulkes estimate   =    -140.94664039 Ry
     estimated scf accuracy    <       0.00011701 Ry

     iteration #  5     ecut=    80.00 Ry     beta= 0.40
     Davidson diagonalization with overlap
     ethr =  1.26E-07,  avg # of iterations =  4.0

     negative rho (up, down):  1.784E-07 0.000E+00

     total cpu time spent up to now is     2262.2 secs

     total energy              =    -140.94659919 Ry
     Harris-Foulkes estimate   =    -140.94665477 Ry
     estimated scf accuracy    <       0.00035082 Ry

     iteration #  6     ecut=    80.00 Ry     beta= 0.40
     Davidson diagonalization with overlap
     ethr =  1.26E-07,  avg # of iterations =  4.0

     negative rho (up, down):  5.547E-08 0.000E+00

     total cpu time spent up to now is     2288.5 secs

     total energy              =    -140.94662568 Ry
     Harris-Foulkes estimate   =    -140.94663319 Ry
     estimated scf accuracy    <       0.00004484 Ry

     iteration #  7     ecut=    80.00 Ry     beta= 0.40
     Davidson diagonalization with overlap
     ethr =  4.82E-08,  avg # of iterations =  3.0

     negative rho (up, down):  4.132E-08 0.000E+00

     total cpu time spent up to now is     2313.9 secs

     total energy              =    -140.94662962 Ry
     Harris-Foulkes estimate   =    -140.94663177 Ry
     estimated scf accuracy    <       0.00001424 Ry

     iteration #  8     ecut=    80.00 Ry     beta= 0.40
     Davidson diagonalization with overlap
     ethr =  1.53E-08,  avg # of iterations =  3.0

     negative rho (up, down):  1.758E-08 0.000E+00

     total cpu time spent up to now is     2338.1 secs

     total energy              =    -140.94663058 Ry
     Harris-Foulkes estimate   =    -140.94663178 Ry
     estimated scf accuracy    <       0.00000716 Ry

     iteration #  9     ecut=    80.00 Ry     beta= 0.40
     Davidson diagonalization with overlap
     ethr =  7.70E-09,  avg # of iterations =  4.0

     total cpu time spent up to now is     2364.2 secs

     total energy              =    -140.94663097 Ry
     Harris-Foulkes estimate   =    -140.94663149 Ry
     estimated scf accuracy    <       0.00000287 Ry

     iteration # 10     ecut=    80.00 Ry     beta= 0.40
     Davidson diagonalization with overlap
     ethr =  3.09E-09,  avg # of iterations =  4.0

     total cpu time spent up to now is     2388.8 secs

     total energy              =    -140.94663091 Ry
     Harris-Foulkes estimate   =    -140.94663139 Ry
     estimated scf accuracy    <       0.00000411 Ry

     iteration # 11     ecut=    80.00 Ry     beta= 0.40
     Davidson diagonalization with overlap
     ethr =  3.09E-09,  avg # of iterations =  2.0

     total cpu time spent up to now is     2409.3 secs

     total energy              =    -140.94663086 Ry
     Harris-Foulkes estimate   =    -140.94663106 Ry
     estimated scf accuracy    <       0.00000110 Ry

     iteration # 12     ecut=    80.00 Ry     beta= 0.40
     Davidson diagonalization with overlap
     ethr =  1.19E-09,  avg # of iterations =  4.0

     total cpu time spent up to now is     2434.6 secs

     End of self-consistent calculation

          k = 0.0000 0.0000 0.0000 (448403 PWs)   bands (ev):

    -9.9598  -9.4543  -9.4510  -9.4503  -9.4110  -9.4104  -9.1297  -8.4061
    -8.4021  -8.4020  -8.3603  -8.3586  -8.3189  -8.2189  -8.2184  -7.5780
    -6.9340  -6.9333  -6.8256  -6.4778  -6.4774  -6.4430  -6.3862  -6.3850
    -5.5297  -4.8176  -4.8059  -4.8051  -4.7358  -4.7357  -4.4641  -4.4573
    -4.4462  -4.4461  -4.1561  -4.1554  -3.9805  -3.4732  -3.4720  -3.4717
    -3.4500  -3.4494  -3.3777  -3.3415  -3.2594  -3.2591  -3.2131  -2.9663
    -2.9430  -2.9424  -2.9155  -2.4912  -2.4903  -2.4406  -2.4404  -2.4177

     the Fermi energy is    -3.0883 ev

!    total energy              =    -140.94663073 Ry
     Harris-Foulkes estimate   =    -140.94663092 Ry
     estimated scf accuracy    <       0.00000024 Ry

     The total energy is the sum of the following terms:

     one-electron contribution =    -503.28278010 Ry
     hartree contribution      =     260.37820136 Ry
     xc contribution           =     -61.31738116 Ry
     ewald contribution        =     163.35100788 Ry
     smearing contrib. (-TS)   =      -0.07567872 Ry

     convergence has been achieved in  12 iterations

     Forces acting on atoms (cartesian axes, Ry/au):

     atom    1 type  1   force =     0.00089824   -0.00036006    0.00000000
     atom    2 type  1   force =    -0.00175405    0.00093328    0.00000000
     atom    3 type  1   force =     0.00000773    0.00108205    0.00000000
     atom    4 type  1   force =     0.00217960    0.00116557    0.00000000
     atom    5 type  1   force =     0.00122320    0.00942026    0.00000000
     atom    6 type  1   force =    -0.00002851   -0.00212216    0.00000000
     atom    7 type  1   force =     0.00886109   -0.00358633    0.00000000
     atom    8 type  1   force =     0.01309068    0.00760012    0.00000000
     atom    9 type  1   force =     0.00767099   -0.00568574    0.00000000
     atom   10 type  1   force =     0.00005421   -0.01496726    0.00000000
     atom   11 type  1   force =     0.00176829    0.00098531    0.00000000
     atom   12 type  1   force =     0.00172629    0.00160906    0.00000000
     atom   13 type  1   force =    -0.00108434    0.00945011    0.00000000
     atom   14 type  1   force =     0.00232183    0.00074050    0.00000000
     atom   15 type  1   force =    -0.01290991    0.00759489    0.00000000
     atom   16 type  1   force =    -0.00768075   -0.00583089    0.00000000
     atom   17 type  1   force =     0.00147026    0.00079925    0.00000000
     atom   18 type  1   force =     0.00003252   -0.00266946    0.00000000
     atom   19 type  1   force =    -0.00165161    0.00176335    0.00000000
     atom   20 type  1   force =    -0.00233751    0.00136426    0.00000000
     atom   21 type  1   force =    -0.00002365   -0.00000353    0.00000000
     atom   22 type  1   force =    -0.00898681   -0.00365518    0.00000000
     atom   23 type  1   force =     0.00077844   -0.00238028    0.00000000
     atom   24 type  1   force =    -0.00063871   -0.00026965    0.00000000
     atom   25 type  1   force =    -0.00001798   -0.00244900    0.00000000
     atom   26 type  1   force =    -0.00194929    0.00114343    0.00000000
     atom   27 type  1   force =    -0.00210800    0.00115144    0.00000000
     atom   28 type  1   force =     0.00240146    0.00136834    0.00000000
     atom   29 type  1   force =    -0.00248976    0.00052228    0.00000000
     atom   30 type  1   force =     0.00004591   -0.00230696    0.00000000
     atom   31 type  1   force =    -0.00086985   -0.00240702    0.00000000

     Total force =     0.036508     Total SCF correction =     0.000379


     Computing stress (Cartesian axis) and pressure

          total   stress  (Ry/bohr**3)                   (kbar)     P=   -0.70
  -0.00000716   0.00000001   0.00000000         -1.05      0.00      0.00
   0.00000001  -0.00000717   0.00000000          0.00     -1.06      0.00
   0.00000000   0.00000000   0.00000001          0.00      0.00      0.00


     number of scf cycles    =   6
     number of bfgs steps    =   5

     enthalpy old            =    -140.9429401241 Ry
     enthalpy new            =    -140.9466307266 Ry

     CASE: enthalpy_new < enthalpy_old

     new trust radius        =       0.1149533608 bohr
     new conv_thr            =       0.0000010000 Ry

     new unit-cell volume =  36894.77003 a.u.^3 (  5467.24078 Ang^3 )
     density =      0.28229 g/cm^3

CELL_PARAMETERS (alat= 33.68096681)
   0.996804277  -0.000010372   0.000000000
  -0.498411121   0.863295666   0.000000000
   0.000000000   0.000000000   1.122132950

ATOMIC_POSITIONS (angstrom)
Al      -0.008843586   2.568599956   0.000000000
Al       2.226676749   1.278897766   0.000000000
Al      -2.221177212   6.401231984   0.000000000
Al       0.007991633   5.133873088   0.000000000
Al      -4.434051213  10.248820828   0.000000000
Al      -2.220878858   8.982610666   0.000000000
Al      -6.666638700  14.115521801   0.000000000
Al      -4.297698341  12.905359769   0.000000000
Al       4.430069341   2.562153620   0.000000000
Al       6.661951135   1.115977422   0.000000000
Al       2.243136923   6.424089179   0.000000000
Al       4.431758819   5.086323116   0.000000000
Al      -0.007726033  10.249028172   0.000000000
Al       2.178672093   8.988303506   0.000000000
Al      -0.144383261  12.904814096   0.000000000
Al       8.894872950   2.562335813   0.000000000
Al      11.098067013   1.278956125   0.000000000
Al       6.662605178   6.423939478   0.000000000
Al       8.892628531   5.086591700   0.000000000
Al       4.452915914  10.251606552   0.000000000
Al       6.662277802   8.975422366   0.000000000
Al       2.225055046  14.115554204   0.000000000
Al       4.409607756  12.851914109   0.000000000
Al      13.333221153   2.568917215   0.000000000
Al      15.546045837   1.272929153   0.000000000
Al      11.081552436   6.423945885   0.000000000
Al      13.316974814   5.134041700   0.000000000
Al       8.871706723  10.251318851   0.000000000
Al      11.146025224   8.988319667   0.000000000
Al       6.662265602  14.078792614   0.000000000
Al       8.915252277  12.852267961   0.000000000



     Writing output data file 15al_planar_2x2_vcr.save/
     NEW-OLD atomic charge density approx. for the potential

     negative rho (up, down):  2.663E-06 0.000E+00
     extrapolated charge   92.78095, renormalised to   93.00000

     total cpu time spent up to now is     2529.7 secs

     Self-consistent Calculation

     iteration #  1     ecut=    80.00 Ry     beta= 0.40
     Davidson diagonalization with overlap
     ethr =  1.00E-06,  avg # of iterations = 12.0

     negative rho (up, down):  1.428E-06 0.000E+00

     total cpu time spent up to now is     2586.0 secs

     total energy              =    -140.95066597 Ry
     Harris-Foulkes estimate   =    -142.03995743 Ry
     estimated scf accuracy    <       0.00198131 Ry

     iteration #  2     ecut=    80.00 Ry     beta= 0.40
     Davidson diagonalization with overlap
     ethr =  2.13E-06,  avg # of iterations =  8.0

     negative rho (up, down):  1.289E-06 0.000E+00

     total cpu time spent up to now is     2625.4 secs

     total energy              =    -140.95050828 Ry
     Harris-Foulkes estimate   =    -140.95378963 Ry
     estimated scf accuracy    <       0.02498316 Ry

     iteration #  3     ecut=    80.00 Ry     beta= 0.40
     Davidson diagonalization with overlap
     ethr =  2.13E-06,  avg # of iterations =  6.0

     negative rho (up, down):  9.228E-07 0.000E+00

     total cpu time spent up to now is     2656.5 secs

     total energy              =    -140.95196325 Ry
     Harris-Foulkes estimate   =    -140.95209030 Ry
     estimated scf accuracy    <       0.00056964 Ry

     iteration #  4     ecut=    80.00 Ry     beta= 0.40
     Davidson diagonalization with overlap
     ethr =  6.13E-07,  avg # of iterations =  2.0

     negative rho (up, down):  6.569E-07 0.000E+00

     total cpu time spent up to now is     2679.5 secs

     total energy              =    -140.95196180 Ry
     Harris-Foulkes estimate   =    -140.95202223 Ry
     estimated scf accuracy    <       0.00033568 Ry

     iteration #  5     ecut=    80.00 Ry     beta= 0.40
     Davidson diagonalization with overlap
     ethr =  3.61E-07,  avg # of iterations =  4.0

     negative rho (up, down):  3.721E-07 0.000E+00

     total cpu time spent up to now is     2704.7 secs

     total energy              =    -140.95193368 Ry
     Harris-Foulkes estimate   =    -140.95203367 Ry
     estimated scf accuracy    <       0.00060282 Ry

     iteration #  6     ecut=    80.00 Ry     beta= 0.40
     Davidson diagonalization with overlap
     ethr =  3.61E-07,  avg # of iterations =  3.0

     negative rho (up, down):  7.533E-08 0.000E+00

     total cpu time spent up to now is     2727.8 secs

     total energy              =    -140.95197971 Ry
     Harris-Foulkes estimate   =    -140.95199492 Ry
     estimated scf accuracy    <       0.00008475 Ry

     iteration #  7     ecut=    80.00 Ry     beta= 0.40
     Davidson diagonalization with overlap
     ethr =  9.11E-08,  avg # of iterations =  3.0

     negative rho (up, down):  5.717E-08 0.000E+00

     total cpu time spent up to now is     2755.6 secs

     total energy              =    -140.95199069 Ry
     Harris-Foulkes estimate   =    -140.95199516 Ry
     estimated scf accuracy    <       0.00002479 Ry

     iteration #  8     ecut=    80.00 Ry     beta= 0.40
     Davidson diagonalization with overlap
     ethr =  2.67E-08,  avg # of iterations =  3.0

     negative rho (up, down):  3.079E-08 0.000E+00

     total cpu time spent up to now is     2785.4 secs

     total energy              =    -140.95199289 Ry
     Harris-Foulkes estimate   =    -140.95199526 Ry
     estimated scf accuracy    <       0.00001408 Ry

     iteration #  9     ecut=    80.00 Ry     beta= 0.40
     Davidson diagonalization with overlap
     ethr =  1.51E-08,  avg # of iterations =  1.0

     negative rho (up, down):  1.187E-08 0.000E+00

     total cpu time spent up to now is     2808.9 secs

     total energy              =    -140.95199307 Ry
     Harris-Foulkes estimate   =    -140.95199400 Ry
     estimated scf accuracy    <       0.00000408 Ry

     iteration # 10     ecut=    80.00 Ry     beta= 0.40
     Davidson diagonalization with overlap
     ethr =  4.39E-09,  avg # of iterations =  5.0

     total cpu time spent up to now is     2837.6 secs

     total energy              =    -140.95199223 Ry
     Harris-Foulkes estimate   =    -140.95199344 Ry
     estimated scf accuracy    <       0.00000840 Ry

     iteration # 11     ecut=    80.00 Ry     beta= 0.40
     Davidson diagonalization with overlap
     ethr =  4.39E-09,  avg # of iterations =  3.0

     total cpu time spent up to now is     2859.3 secs

     End of self-consistent calculation

          k = 0.0000 0.0000 0.0000 (448403 PWs)   bands (ev):

    -9.9637  -9.4605  -9.4597  -9.4565  -9.4037  -9.4030  -9.1243  -8.4175
    -8.4011  -8.4007  -8.3522  -8.3506  -8.3256  -8.1915  -8.1909  -7.5786
    -6.9354  -6.9346  -6.8283  -6.4758  -6.4754  -6.4221  -6.3899  -6.3884
    -5.5674  -4.8067  -4.7905  -4.7897  -4.7287  -4.7285  -4.4563  -4.4503
    -4.4474  -4.4473  -4.1751  -4.1742  -3.9818  -3.4773  -3.4763  -3.4725
    -3.4427  -3.4421  -3.4228  -3.3622  -3.2505  -3.2502  -3.2110  -2.9749
    -2.9293  -2.9288  -2.8829  -2.4763  -2.4752  -2.4378  -2.4374  -2.4051

     the Fermi energy is    -3.0856 ev

!    total energy              =    -140.95199165 Ry
     Harris-Foulkes estimate   =    -140.95199229 Ry
     estimated scf accuracy    <       0.00000082 Ry

     The total energy is the sum of the following terms:

     one-electron contribution =    -504.04511184 Ry
     hartree contribution      =     260.75335575 Ry
     xc contribution           =     -61.30996023 Ry
     ewald contribution        =     163.72104707 Ry
     smearing contrib. (-TS)   =      -0.07132240 Ry

     convergence has been achieved in  11 iterations

     Forces acting on atoms (cartesian axes, Ry/au):

     atom    1 type  1   force =     0.00166462   -0.00067229    0.00000000
     atom    2 type  1   force =    -0.00269768    0.00149383    0.00000000
     atom    3 type  1   force =     0.00005301    0.00193178    0.00000000
     atom    4 type  1   force =     0.00302634    0.00156238    0.00000000
     atom    5 type  1   force =     0.00192002    0.01524625    0.00000000
     atom    6 type  1   force =    -0.00001898   -0.00322674    0.00000000
     atom    7 type  1   force =     0.01423134   -0.00591711    0.00000000
     atom    8 type  1   force =     0.01346512    0.00785409    0.00000000
     atom    9 type  1   force =     0.01233063   -0.00913948    0.00000000
     atom   10 type  1   force =     0.00004378   -0.01544520    0.00000000
     atom   11 type  1   force =     0.00153889    0.00090647    0.00000000
     atom   12 type  1   force =     0.00320597    0.00485813    0.00000000
     atom   13 type  1   force =    -0.00174105    0.01521193    0.00000000
     atom   14 type  1   force =     0.00589697    0.00034536    0.00000000
     atom   15 type  1   force =    -0.01329370    0.00785365    0.00000000
     atom   16 type  1   force =    -0.01236817   -0.00929673    0.00000000
     atom   17 type  1   force =     0.00242844    0.00134359    0.00000000
     atom   18 type  1   force =    -0.00004000   -0.00478222    0.00000000
     atom   19 type  1   force =    -0.00306870    0.00499574    0.00000000
     atom   20 type  1   force =    -0.00423860    0.00239758    0.00000000
     atom   21 type  1   force =    -0.00001748   -0.00003203    0.00000000
     atom   22 type  1   force =    -0.01431037   -0.00602454    0.00000000
     atom   23 type  1   force =     0.00284567   -0.00521428    0.00000000
     atom   24 type  1   force =    -0.00134451   -0.00064848    0.00000000
     atom   25 type  1   force =    -0.00004047   -0.00344153    0.00000000
     atom   26 type  1   force =    -0.00171893    0.00107586    0.00000000
     atom   27 type  1   force =    -0.00299400    0.00158394    0.00000000
     atom   28 type  1   force =     0.00427623    0.00244882    0.00000000
     atom   29 type  1   force =    -0.00611174    0.00009000    0.00000000
     atom   30 type  1   force =     0.00005506   -0.00206085    0.00000000
     atom   31 type  1   force =    -0.00297771   -0.00529794    0.00000000

     Total force =     0.050110     Total SCF correction =     0.000707


     Computing stress (Cartesian axis) and pressure

          total   stress  (Ry/bohr**3)                   (kbar)     P=   -0.77
  -0.00000782   0.00000002   0.00000000         -1.15      0.00      0.00
   0.00000002  -0.00000787   0.00000000          0.00     -1.16      0.00
   0.00000000   0.00000000  -0.00000002          0.00      0.00     -0.00


     number of scf cycles    =   7
     number of bfgs steps    =   6

     enthalpy old            =    -140.9466307266 Ry
     enthalpy new            =    -140.9519916466 Ry

     CASE: enthalpy_new < enthalpy_old

     new trust radius        =       0.1722262120 bohr
     new conv_thr            =       0.0000010000 Ry

[...]
     atom   29 type  1   force =     0.00000313    0.00000493    0.00000000
     atom   30 type  1   force =    -0.00000118   -0.00000005    0.00000000
     atom   31 type  1   force =    -0.00000039   -0.00000057    0.00000000

     Total force =     0.000045     Total SCF correction =     0.000047
     SCF correction compared to forces is large: reduce conv_thr to get better values


     Computing stress (Cartesian axis) and pressure

          total   stress  (Ry/bohr**3)                   (kbar)     P=   -0.00
  -0.00000000   0.00000001   0.00000000         -0.00      0.00      0.00
   0.00000001   0.00000001   0.00000000          0.00      0.00      0.00
   0.00000000   0.00000000  -0.00000001          0.00      0.00     -0.00


     bfgs converged in 183 scf cycles and 181 bfgs steps
     (criteria: energy <  1.0E-05 Ry, force <  1.0E-04Ry/Bohr, cell <  5.0E-05kbar)

     End of BFGS Geometry Optimization

     Final enthalpy =    -142.2701674926 Ry
Begin final coordinates
     new unit-cell volume =  26092.80399 a.u.^3 (  3866.55458 Ang^3 )
     density =      0.39916 g/cm^3

CELL_PARAMETERS (alat= 33.68096681)
   0.838295343   0.000094697   0.000000000
  -0.419232988   0.725934444   0.000000000
   0.000000000   0.000000000   1.122132950

ATOMIC_POSITIONS (angstrom)
Al      -0.662929141   1.704465123   0.000000000
Al       1.987936490   1.287337293   0.000000000
Al      -1.627193422   4.208695404   0.000000000
Al       1.023695506   3.791578931   0.000000000
Al      -3.555531541   9.217274322   0.000000000
Al      -2.591370370   6.712964046   0.000000000
Al      -4.519775449  11.721561982   0.000000000
Al      -1.868875805  11.304400377   0.000000000
Al       4.638898552   0.870229152   0.000000000
Al       7.289783053   0.452966096   0.000000000
Al       2.710413703   5.878677376   0.000000000
Al       3.674649324   3.374418691   0.000000000
Al      -0.904681414   8.800097128   0.000000000
Al       0.059491303   6.295861257   0.000000000
Al       0.782084813  10.887218850   0.000000000
Al       6.325553877   2.957339075   0.000000000
Al       8.976400566   2.540173689   0.000000000
Al       5.361318850   5.461584760   0.000000000
Al       8.012228581   5.044526610   0.000000000
Al       1.746232864   8.382928467   0.000000000
Al       4.397148051   7.965837733   0.000000000
Al       2.468661993  12.974412984   0.000000000
Al       3.432955453  10.470113369   0.000000000
Al      11.627314104   2.123157008   0.000000000
Al      12.591639884  -0.381086715   0.000000000
Al       7.048025534   7.548802893   0.000000000
Al      10.663019148   4.627422763   0.000000000
Al       8.734711358   9.636026627   0.000000000
Al       9.698881361   7.131722718   0.000000000
Al       6.083813998  10.053079883   0.000000000
Al       7.770418170  12.140304070   0.000000000
End final coordinates



     Writing output data file 15al_planar_2x2_vcr.save/

     A final scf calculation at the relaxed structure.
     The G-vectors are recalculated for the final unit cell
     Results may differ from those at the preceding step.
 
     Parallelization info
     --------------------
     sticks:   dense  smooth     PW     G-vecs:    dense   smooth      PW
     Min        2198    2198    550               315306   315306   39398
     Max        2199    2199    551               315315   315315   39403
     Sum       17587   17587   4405              2522481  2522481  315207
 


     bravais-lattice index     =            4
     lattice parameter (alat)  =      33.6810  a.u.
     unit-cell volume          =   26092.8040 (a.u.)^3
     number of atoms/cell      =           31
     number of atomic types    =            1
     number of electrons       =        93.00
     number of Kohn-Sham states=           56
     kinetic-energy cutoff     =      80.0000  Ry
     charge density cutoff     =     320.0000  Ry
     convergence threshold     =      1.0E-08
     mixing beta               =       0.4000
     number of iterations used =            8  plain     mixing
     Exchange-correlation      = PBE ( 1  4  3  4 0 0)

     celldm(1)=  33.680967  celldm(2)=   0.000000  celldm(3)=   1.122133
     celldm(4)=   0.000000  celldm(5)=   0.000000  celldm(6)=   0.000000

     crystal axes: (cart. coord. in units of alat)
               a(1) = (   0.838295   0.000095   0.000000 )  
               a(2) = (  -0.419233   0.725934   0.000000 )  
               a(3) = (   0.000000   0.000000   1.122133 )  

     reciprocal axes: (cart. coord. in units 2 pi/alat)
               b(1) = (  1.192819  0.688863  0.000000 )  
               b(2) = ( -0.000156  1.377445  0.000000 )  
               b(3) = (  0.000000  0.000000  0.891160 )  


     PseudoPot. # 1 for Al read from file:
     ./Al.upf
     MD5 check sum: 4974d48a734c9d7d1eb6780a1419d19d
     Pseudo is Norm-conserving + core correction, Zval =  3.0
     Generated using ONCVPSP code by D. R. Hamann
     Using radial grid of 1876 points,  6 beta functions with: 
                l(1) =   0
                l(2) =   0
                l(3) =   1
                l(4) =   1
                l(5) =   2
                l(6) =   2

     atomic species   valence    mass     pseudopotential
        Al             3.00    29.98200     Al( 1.00)

      2 Sym. Ops. (no inversion) found



   Cartesian axes

     site n.     atom                  positions (alat units)
         1           Al  tau(   1) = (  -0.0371947   0.0956318   0.0000000  )
         2           Al  tau(   2) = (   0.1115365   0.0722282   0.0000000  )
         3           Al  tau(   3) = (  -0.0912964   0.2361358   0.0000000  )
         4           Al  tau(   4) = (   0.0574361   0.2127328   0.0000000  )
         5           Al  tau(   5) = (  -0.1994890   0.5171504   0.0000000  )
         6           Al  tau(   6) = (  -0.1453931   0.3766419   0.0000000  )
         7           Al  tau(   7) = (  -0.2535894   0.6576575   0.0000000  )
         8           Al  tau(   8) = (  -0.1048564   0.6342520   0.0000000  )
         9           Al  tau(   9) = (   0.2602730   0.0488256   0.0000000  )
        10           Al  tau(  10) = (   0.4090053   0.0254144   0.0000000  )
        11           Al  tau(  11) = (   0.1520722   0.3298329   0.0000000  )
        12           Al  tau(  12) = (   0.2061723   0.1893273   0.0000000  )
        13           Al  tau(  13) = (  -0.0507586   0.4937439   0.0000000  )
        14           Al  tau(  14) = (   0.0033379   0.3532397   0.0000000  )
        15           Al  tau(  15) = (   0.0438802   0.6108454   0.0000000  )
        16           Al  tau(  16) = (   0.3549056   0.1659264   0.0000000  )
        17           Al  tau(  17) = (   0.5036357   0.1425206   0.0000000  )
        18           Al  tau(  18) = (   0.3008056   0.3064312   0.0000000  )
        19           Al  tau(  19) = (   0.4495393   0.2830315   0.0000000  )
        20           Al  tau(  20) = (   0.0979753   0.4703380   0.0000000  )
        21           Al  tau(  21) = (   0.2467092   0.4469364   0.0000000  )
        22           Al  tau(  22) = (   0.1385083   0.7279508   0.0000000  )
        23           Al  tau(  23) = (   0.1926116   0.5874430   0.0000000  )
        24           Al  tau(  24) = (   0.6523696   0.1191232   0.0000000  )
        25           Al  tau(  25) = (   0.7064747  -0.0213815   0.0000000  )
        26           Al  tau(  26) = (   0.3954411   0.4235380   0.0000000  )
        27           Al  tau(  27) = (   0.5982663   0.2596292   0.0000000  )
        28           Al  tau(  28) = (   0.4900754   0.5406451   0.0000000  )
        29           Al  tau(  29) = (   0.5441717   0.4001371   0.0000000  )
        30           Al  tau(  30) = (   0.3413424   0.5640446   0.0000000  )
        31           Al  tau(  31) = (   0.4359721   0.6811518   0.0000000  )

     number of k points=     1  Methfessel-Paxton smearing, width (Ry)=  0.0500
                       cart. coord. in units 2pi/alat
        k(    1) = (   0.0000000   0.0000000   0.0000000), wk =   2.0000000

     Dense  grid:  2522481 G-vectors     FFT dimensions: ( 162, 162, 216)

     Estimated max dynamical RAM per process >     839.96 MB

     Estimated total dynamical RAM >       6.56 GB

     Initial potential from superposition of free atoms

     starting charge   92.92414, renormalised to   93.00000

     negative rho (up, down):  7.270E-05 0.000E+00
     Starting wfcs are  124 randomized atomic wfcs

     total cpu time spent up to now is    73908.2 secs

     Self-consistent Calculation

     iteration #  1     ecut=    80.00 Ry     beta= 0.40
     Davidson diagonalization with overlap
     ethr =  1.00E-06,  avg # of iterations =  9.0

     negative rho (up, down):  1.173E-05 0.000E+00

     total cpu time spent up to now is    73955.0 secs

     total energy              =    -142.21845620 Ry
     Harris-Foulkes estimate   =    -142.58378659 Ry
     estimated scf accuracy    <       1.01227411 Ry

     iteration #  2     ecut=    80.00 Ry     beta= 0.40
     Davidson diagonalization with overlap
     ethr =  1.09E-03,  avg # of iterations =  1.0

     negative rho (up, down):  3.419E-06 0.000E+00

     total cpu time spent up to now is    73969.7 secs

     total energy              =    -142.25980420 Ry
     Harris-Foulkes estimate   =    -142.29576072 Ry
     estimated scf accuracy    <       0.10989856 Ry

     iteration #  3     ecut=    80.00 Ry     beta= 0.40
     Davidson diagonalization with overlap
     ethr =  1.18E-04,  avg # of iterations =  1.0

     negative rho (up, down):  2.331E-07 0.000E+00

     total cpu time spent up to now is    73984.6 secs

     total energy              =    -142.26910725 Ry
     Harris-Foulkes estimate   =    -142.27099190 Ry
     estimated scf accuracy    <       0.00856724 Ry

     iteration #  4     ecut=    80.00 Ry     beta= 0.40
     Davidson diagonalization with overlap
     ethr =  9.21E-06,  avg # of iterations =  2.0

     negative rho (up, down):  7.965E-08 0.000E+00

     total cpu time spent up to now is    74001.7 secs

     total energy              =    -142.26976157 Ry
     Harris-Foulkes estimate   =    -142.26981827 Ry
     estimated scf accuracy    <       0.00014990 Ry

     iteration #  5     ecut=    80.00 Ry     beta= 0.40
     Davidson diagonalization with overlap
     ethr =  1.61E-07,  avg # of iterations =  5.0

     negative rho (up, down):  4.549E-08 0.000E+00

     total cpu time spent up to now is    74026.6 secs

     total energy              =    -142.26987300 Ry
     Harris-Foulkes estimate   =    -142.26989881 Ry
     estimated scf accuracy    <       0.00011843 Ry

     iteration #  6     ecut=    80.00 Ry     beta= 0.40
     Davidson diagonalization with overlap
     ethr =  1.27E-07,  avg # of iterations =  3.0

     negative rho (up, down):  3.499E-08 0.000E+00

     total cpu time spent up to now is    74044.8 secs

     total energy              =    -142.26988248 Ry
     Harris-Foulkes estimate   =    -142.26988413 Ry
     estimated scf accuracy    <       0.00001476 Ry

     iteration #  7     ecut=    80.00 Ry     beta= 0.40
     Davidson diagonalization with overlap
     ethr =  1.59E-08,  avg # of iterations =  4.0

     total cpu time spent up to now is    74063.3 secs

     total energy              =    -142.26988318 Ry
     Harris-Foulkes estimate   =    -142.26988383 Ry
     estimated scf accuracy    <       0.00000611 Ry

     iteration #  8     ecut=    80.00 Ry     beta= 0.40
     Davidson diagonalization with overlap
     ethr =  6.57E-09,  avg # of iterations =  5.0

     total cpu time spent up to now is    74086.6 secs

     total energy              =    -142.26988381 Ry
     Harris-Foulkes estimate   =    -142.26988561 Ry
     estimated scf accuracy    <       0.00000780 Ry

     iteration #  9     ecut=    80.00 Ry     beta= 0.40
     Davidson diagonalization with overlap
     ethr =  6.57E-09,  avg # of iterations =  3.0

     total cpu time spent up to now is    74103.3 secs

     total energy              =    -142.26988372 Ry
     Harris-Foulkes estimate   =    -142.26988421 Ry
     estimated scf accuracy    <       0.00000174 Ry

     iteration # 10     ecut=    80.00 Ry     beta= 0.40
     Davidson diagonalization with overlap
     ethr =  1.88E-09,  avg # of iterations =  5.0

     total cpu time spent up to now is    74121.3 secs

     total energy              =    -142.26988391 Ry
     Harris-Foulkes estimate   =    -142.26988396 Ry
     estimated scf accuracy    <       0.00000017 Ry

     iteration # 11     ecut=    80.00 Ry     beta= 0.40
     Davidson diagonalization with overlap
     ethr =  1.85E-10,  avg # of iterations =  5.0

     total cpu time spent up to now is    74143.6 secs

     total energy              =    -142.26988394 Ry
     Harris-Foulkes estimate   =    -142.26988395 Ry
     estimated scf accuracy    <       0.00000010 Ry

     iteration # 12     ecut=    80.00 Ry     beta= 0.40
     Davidson diagonalization with overlap
     ethr =  1.10E-10,  avg # of iterations =  3.0

     total cpu time spent up to now is    74159.8 secs

     total energy              =    -142.26988394 Ry
     Harris-Foulkes estimate   =    -142.26988395 Ry
     estimated scf accuracy    <       0.00000005 Ry

     iteration # 13     ecut=    80.00 Ry     beta= 0.40
     Davidson diagonalization with overlap
     ethr =  4.94E-11,  avg # of iterations =  4.0

     total cpu time spent up to now is    74176.4 secs

     End of self-consistent calculation

          k = 0.0000 0.0000 0.0000 (315207 PWs)   bands (ev):

   -11.6236 -10.7478 -10.7477 -10.7477 -10.7477 -10.7477 -10.7477  -9.0216
    -9.0216  -9.0216  -9.0216  -9.0216  -9.0216  -8.1738  -8.1738  -8.1737
    -8.1737  -8.1737  -8.1737  -5.7782  -5.7781  -5.7781  -5.7781  -5.7781
    -5.7781  -5.7076  -5.7076  -5.7075  -5.7075  -5.7075  -5.7075  -4.8691
    -4.0234  -4.0234  -4.0233  -4.0233  -4.0233  -4.0233  -3.7523  -3.7523
    -3.7522  -3.7522  -3.7521  -3.7521  -2.3346  -2.3345  -2.3345  -2.3345
    -2.3345  -2.3345  -1.8112  -1.8111  -1.8111  -1.8111  -1.8111  -1.8110

     the Fermi energy is    -2.4051 ev

!    total energy              =    -142.26988393 Ry
     Harris-Foulkes estimate   =    -142.26988394 Ry
     estimated scf accuracy    <          9.6E-09 Ry

     The total energy is the sum of the following terms:

     one-electron contribution =    -702.58176512 Ry
     hartree contribution      =     360.19384505 Ry
     xc contribution           =     -63.84992049 Ry
     ewald contribution        =     264.01462160 Ry
     smearing contrib. (-TS)   =      -0.04666497 Ry

     convergence has been achieved in  13 iterations

     Forces acting on atoms (cartesian axes, Ry/au):

     atom    1 type  1   force =     0.00000121   -0.00000972    0.00000000
     atom    2 type  1   force =     0.00000896   -0.00000079    0.00000000
     atom    3 type  1   force =     0.00000186    0.00000164    0.00000000
     atom    4 type  1   force =     0.00000711    0.00000684    0.00000000
     atom    5 type  1   force =    -0.00000479   -0.00000618    0.00000000
     atom    6 type  1   force =    -0.00000237   -0.00000554    0.00000000
     atom    7 type  1   force =    -0.00000563   -0.00000527    0.00000000
     atom    8 type  1   force =     0.00000011   -0.00000699    0.00000000
     atom    9 type  1   force =    -0.00000046   -0.00000675    0.00000000
     atom   10 type  1   force =     0.00001140    0.00001620    0.00000000
     atom   11 type  1   force =     0.00000040    0.00000229    0.00000000
     atom   12 type  1   force =    -0.00000576    0.00001250    0.00000000
     atom   13 type  1   force =     0.00000826    0.00000496    0.00000000
     atom   14 type  1   force =     0.00000711   -0.00000865    0.00000000
     atom   15 type  1   force =    -0.00000912   -0.00000387    0.00000000
     atom   16 type  1   force =     0.00000322   -0.00000055    0.00000000
     atom   17 type  1   force =     0.00000469    0.00000618    0.00000000
     atom   18 type  1   force =     0.00000258    0.00000386    0.00000000
     atom   19 type  1   force =    -0.00000938   -0.00000526    0.00000000
     atom   20 type  1   force =     0.00000380    0.00000654    0.00000000
     atom   21 type  1   force =    -0.00000301    0.00000456    0.00000000
     atom   22 type  1   force =     0.00000070   -0.00000320    0.00000000
     atom   23 type  1   force =    -0.00000223    0.00000316    0.00000000
     atom   24 type  1   force =    -0.00000403    0.00000178    0.00000000
     atom   25 type  1   force =    -0.00000739   -0.00000877    0.00000000
     atom   26 type  1   force =    -0.00000569   -0.00000003    0.00000000
     atom   27 type  1   force =     0.00001105   -0.00000025    0.00000000
     atom   28 type  1   force =    -0.00000716   -0.00000038    0.00000000
     atom   29 type  1   force =     0.00000108    0.00000337    0.00000000
     atom   30 type  1   force =    -0.00000367   -0.00000102    0.00000000
     atom   31 type  1   force =    -0.00000285   -0.00000065    0.00000000

     Total force =     0.000046     Total SCF correction =     0.000103
     SCF correction compared to forces is large: reduce conv_thr to get better values


     Computing stress (Cartesian axis) and pressure

          total   stress  (Ry/bohr**3)                   (kbar)     P=    0.00
   0.00000004   0.00000001   0.00000000          0.01      0.00      0.00
   0.00000001   0.00000005   0.00000000          0.00      0.01      0.00
   0.00000000   0.00000000  -0.00000002          0.00      0.00     -0.00


     Writing output data file 15al_planar_2x2_vcr.save/
 
     init_run     :     50.42s CPU     53.79s WALL (       2 calls)
     electrons    :  52501.65s CPU  56998.12s WALL (     184 calls)
     update_pot   :   4591.59s CPU   4619.80s WALL (     182 calls)
     forces       :   3559.77s CPU   3608.87s WALL (     184 calls)
     stress       :   8722.05s CPU   8836.82s WALL (     184 calls)

     Called by init_run:
     wfcinit      :     24.21s CPU     27.14s WALL (       2 calls)
     potinit      :      9.74s CPU      9.97s WALL (       2 calls)
     hinit0       :     13.57s CPU     13.68s WALL (       2 calls)

     Called by electrons:
     c_bands      :  44576.75s CPU  48154.71s WALL (    1818 calls)
     sum_band     :   5332.88s CPU   5939.98s WALL (    1818 calls)
     v_of_rho     :   2249.12s CPU   2442.00s WALL (    1963 calls)
     mix_rho      :    453.23s CPU    549.53s WALL (    1818 calls)

     Called by c_bands:
     init_us_2    :    692.63s CPU    694.77s WALL (    3638 calls)
     cegterg      :  39021.84s CPU  42589.80s WALL (    1820 calls)

     Called by sum_band:

     Called by *egterg:
     h_psi        :  34075.00s CPU  37573.42s WALL (   11783 calls)
     g_psi        :    137.89s CPU    138.41s WALL (    9961 calls)
     cdiaghg      :    108.91s CPU    109.60s WALL (   11558 calls)

     Called by h_psi:
     h_psi:pot    :  33998.30s CPU  37434.93s WALL (   11783 calls)
     h_psi:calbec :   5290.28s CPU   5301.64s WALL (   11783 calls)
     vloc_psi     :  23079.33s CPU  26496.77s WALL (   11783 calls)
     add_vuspsi   :   5628.45s CPU   5636.38s WALL (   11783 calls)

     General routines
     calbec       :   6053.06s CPU   6065.73s WALL (   12703 calls)
     fft          :   2370.11s CPU   2544.26s WALL (   24451 calls)
     ffts         :    134.32s CPU    146.26s WALL (    1818 calls)
     fftw         :  23984.21s CPU  27946.54s WALL (  714334 calls)
 
     Parallel routines
     fft_scatt_xy :   4333.05s CPU   5053.20s WALL (  740603 calls)
     fft_scatt_yz :  10426.06s CPU  11507.52s WALL (  740603 calls)
 
     PWSCF        :    19h18m CPU       18h20m WALL

      36h
 
   This run was terminated on:  21:40:50  26Nov2020            

=------------------------------------------------------------------------------=
   JOB DONE.
=------------------------------------------------------------------------------=
