
     Program PWSCF v.6.3MaX starts on 25Nov2020 at 22:58: 9 

     This program is part of the open-source Quantum ESPRESSO suite
     for quantum simulation of materials; please cite
         "P. Giannozzi et al., J. Phys.:Condens. Matter 21 395502 (2009);
         "P. Giannozzi et al., J. Phys.:Condens. Matter 29 465901 (2017);
          URL http://www.quantum-espresso.org", 
     in publications or presentations arising from this work. More details at
     http://www.quantum-espresso.org/quote

     Parallel version (MPI), running on     8 processors

     MPI processes distributed on     2 nodes
     R & G space division:  proc/nbgrp/npool/nimage =       8
     Waiting for input...
     Reading input from standard input

     Current dimensions of program PWSCF are:
     Max number of different atomic species (ntypx) = 10
     Max number of k-points (npk) =  40000
     Max angular momentum in pseudopotentials (lmaxx) =  3

     Subspace diagonalization in iterative solution of the eigenvalue problem:
     a serial algorithm will be used

 
     Parallelization info
     --------------------
     sticks:   dense  smooth     PW     G-vecs:    dense   smooth      PW
     Min        3123    3123    778               448599   448599   56048
     Max        3124    3124    779               448604   448604   56052
     Sum       24985   24985   6229              3588803  3588803  448403
 


     bravais-lattice index     =            4
     lattice parameter (alat)  =      33.6810  a.u.
     unit-cell volume          =   37130.3117 (a.u.)^3
     number of atoms/cell      =           31
     number of atomic types    =            1
     number of electrons       =        93.00
     number of Kohn-Sham states=           56
     kinetic-energy cutoff     =      80.0000  Ry
     charge density cutoff     =     320.0000  Ry
     convergence threshold     =      1.0E-06
     mixing beta               =       0.4000
     number of iterations used =            8  plain     mixing
     Exchange-correlation      = PBE ( 1  4  3  4 0 0)
     nstep                     =          300


     celldm(1)=  33.680967  celldm(2)=   0.000000  celldm(3)=   1.122133
     celldm(4)=   0.000000  celldm(5)=   0.000000  celldm(6)=   0.000000

     crystal axes: (cart. coord. in units of alat)
               a(1) = (   1.000000   0.000000   0.000000 )  
               a(2) = (  -0.500000   0.866025   0.000000 )  
               a(3) = (   0.000000   0.000000   1.122133 )  

     reciprocal axes: (cart. coord. in units 2 pi/alat)
               b(1) = (  1.000000  0.577350  0.000000 )  
               b(2) = (  0.000000  1.154701  0.000000 )  
               b(3) = (  0.000000  0.000000  0.891160 )  


     PseudoPot. # 1 for Al read from file:
     ./Al.upf
     MD5 check sum: 4974d48a734c9d7d1eb6780a1419d19d
     Pseudo is Norm-conserving + core correction, Zval =  3.0
     Generated using ONCVPSP code by D. R. Hamann
     Using radial grid of 1876 points,  6 beta functions with: 
                l(1) =   0
                l(2) =   0
                l(3) =   1
                l(4) =   1
                l(5) =   2
                l(6) =   2

     atomic species   valence    mass     pseudopotential
        Al             3.00    29.98200     Al( 1.00)

      4 Sym. Ops. (no inversion) found ( 2 have fractional translation)



   Cartesian axes

     site n.     atom                  positions (alat units)
         1           Al  tau(   1) = (  -0.0000000   0.1443393   0.0000000  )
         2           Al  tau(   2) = (   0.1250015   0.0721696   0.0000000  )
         3           Al  tau(   3) = (  -0.1249997   0.3608472   0.0000000  )
         4           Al  tau(   4) = (   0.0000018   0.2886775   0.0000000  )
         5           Al  tau(   5) = (  -0.2499994   0.5773550   0.0000000  )
         6           Al  tau(   6) = (  -0.1249979   0.5051854   0.0000000  )
         7           Al  tau(   7) = (  -0.3749991   0.7938629   0.0000000  )
         8           Al  tau(   8) = (  -0.2499976   0.7216932   0.0000000  )
         9           Al  tau(   9) = (   0.2500011   0.1443403   0.0000000  )
        10           Al  tau(  10) = (   0.3750027   0.0721706   0.0000000  )
        11           Al  tau(  11) = (   0.1250014   0.3608482   0.0000000  )
        12           Al  tau(  12) = (   0.0000017   0.5773560   0.0000000  )
        13           Al  tau(  13) = (   0.1250033   0.5051864   0.0000000  )
        14           Al  tau(  14) = (  -0.1249980   0.7938639   0.0000000  )
        15           Al  tau(  15) = (   0.0000036   0.7216942   0.0000000  )
        16           Al  tau(  16) = (   0.5000023   0.1443413   0.0000000  )
        17           Al  tau(  17) = (   0.6250038   0.0721717   0.0000000  )
        18           Al  tau(  18) = (   0.3750026   0.3608492   0.0000000  )
        19           Al  tau(  19) = (   0.5000041   0.2886795   0.0000000  )
        20           Al  tau(  20) = (   0.2500029   0.5773571   0.0000000  )
        21           Al  tau(  21) = (   0.3750044   0.5051874   0.0000000  )
        22           Al  tau(  22) = (   0.1250032   0.7938649   0.0000000  )
        23           Al  tau(  23) = (   0.2500047   0.7216953   0.0000000  )
        24           Al  tau(  24) = (   0.7500035   0.1443423   0.0000000  )
        25           Al  tau(  25) = (   0.8750050   0.0721727   0.0000000  )
        26           Al  tau(  26) = (   0.6250038   0.3608502   0.0000000  )
        27           Al  tau(  27) = (   0.7500053   0.2886805   0.0000000  )
        28           Al  tau(  28) = (   0.5000041   0.5773581   0.0000000  )
        29           Al  tau(  29) = (   0.6250056   0.5051884   0.0000000  )
        30           Al  tau(  30) = (   0.3750044   0.7938660   0.0000000  )
        31           Al  tau(  31) = (   0.5000059   0.7216963   0.0000000  )

     number of k points=     1  Methfessel-Paxton smearing, width (Ry)=  0.0500
                       cart. coord. in units 2pi/alat
        k(    1) = (   0.0000000   0.0000000   0.0000000), wk =   2.0000000

     Dense  grid:  3588803 G-vectors     FFT dimensions: ( 192, 192, 216)

     Estimated max dynamical RAM per process >       1.15 GB

     Estimated total dynamical RAM >       9.23 GB

     Initial potential from superposition of free atoms

     starting charge   92.92414, renormalised to   93.00000

     negative rho (up, down):  9.278E-05 0.000E+00
     Starting wfcs are  124 randomized atomic wfcs

     total cpu time spent up to now is       31.9 secs

     Self-consistent Calculation

     iteration #  1     ecut=    80.00 Ry     beta= 0.40
     Davidson diagonalization with overlap
     ethr =  1.00E-02,  avg # of iterations =  2.0

     total cpu time spent up to now is       62.3 secs

     total energy              =    -140.64219044 Ry
     Harris-Foulkes estimate   =    -141.23601632 Ry
     estimated scf accuracy    <       1.54855080 Ry

     iteration #  2     ecut=    80.00 Ry     beta= 0.40
     Davidson diagonalization with overlap
     ethr =  1.67E-03,  avg # of iterations =  5.0

     negative rho (up, down):  7.930E-08 0.000E+00

     total cpu time spent up to now is       92.9 secs

     total energy              =    -140.21924835 Ry
     Harris-Foulkes estimate   =    -141.45881202 Ry
     estimated scf accuracy    <       6.74999881 Ry

     iteration #  3     ecut=    80.00 Ry     beta= 0.40
     Davidson diagonalization with overlap
     ethr =  1.67E-03,  avg # of iterations =  5.0

     negative rho (up, down):  1.614E-05 0.000E+00

     total cpu time spent up to now is      123.4 secs

     total energy              =    -140.82713863 Ry
     Harris-Foulkes estimate   =    -141.02182104 Ry
     estimated scf accuracy    <       1.16643586 Ry

     iteration #  4     ecut=    80.00 Ry     beta= 0.40
     Davidson diagonalization with overlap
     ethr =  1.25E-03,  avg # of iterations =  1.0

     negative rho (up, down):  3.354E-05 0.000E+00

     total cpu time spent up to now is      147.6 secs

     total energy              =    -140.89916336 Ry
     Harris-Foulkes estimate   =    -140.94389272 Ry
     estimated scf accuracy    <       0.15382689 Ry

     iteration #  5     ecut=    80.00 Ry     beta= 0.40
     Davidson diagonalization with overlap
     ethr =  1.65E-04,  avg # of iterations =  5.0

     negative rho (up, down):  4.030E-05 0.000E+00

     total cpu time spent up to now is      176.1 secs

     total energy              =    -140.91269669 Ry
     Harris-Foulkes estimate   =    -140.95634469 Ry
     estimated scf accuracy    <       0.31221968 Ry

     iteration #  6     ecut=    80.00 Ry     beta= 0.40
     Davidson diagonalization with overlap
     ethr =  1.65E-04,  avg # of iterations =  3.0

     negative rho (up, down):  5.806E-05 0.000E+00

     total cpu time spent up to now is      203.2 secs

     total energy              =    -140.93248085 Ry
     Harris-Foulkes estimate   =    -140.93477950 Ry
     estimated scf accuracy    <       0.01000258 Ry

     iteration #  7     ecut=    80.00 Ry     beta= 0.40
     Davidson diagonalization with overlap
     ethr =  1.08E-05,  avg # of iterations = 11.0

     negative rho (up, down):  7.711E-05 0.000E+00

     total cpu time spent up to now is      244.6 secs

     total energy              =    -140.93550307 Ry
     Harris-Foulkes estimate   =    -140.93674681 Ry
     estimated scf accuracy    <       0.00609895 Ry

     iteration #  8     ecut=    80.00 Ry     beta= 0.40
     Davidson diagonalization with overlap
     ethr =  6.56E-06,  avg # of iterations =  3.0

     negative rho (up, down):  8.090E-05 0.000E+00

     total cpu time spent up to now is      270.3 secs

     total energy              =    -140.93545212 Ry
     Harris-Foulkes estimate   =    -140.93693102 Ry
     estimated scf accuracy    <       0.00942490 Ry

     iteration #  9     ecut=    80.00 Ry     beta= 0.40
     Davidson diagonalization with overlap
     ethr =  6.56E-06,  avg # of iterations =  3.0

     negative rho (up, down):  8.191E-05 0.000E+00

     total cpu time spent up to now is      293.7 secs

     total energy              =    -140.93588981 Ry
     Harris-Foulkes estimate   =    -140.93621735 Ry
     estimated scf accuracy    <       0.00182336 Ry

     iteration # 10     ecut=    80.00 Ry     beta= 0.40
     Davidson diagonalization with overlap
     ethr =  1.96E-06,  avg # of iterations =  4.0

     negative rho (up, down):  8.375E-05 0.000E+00

     total cpu time spent up to now is      319.8 secs

     total energy              =    -140.93600927 Ry
     Harris-Foulkes estimate   =    -140.93609969 Ry
     estimated scf accuracy    <       0.00040161 Ry

     iteration # 11     ecut=    80.00 Ry     beta= 0.40
     Davidson diagonalization with overlap
     ethr =  4.32E-07,  avg # of iterations =  5.0

     negative rho (up, down):  8.444E-05 0.000E+00

     total cpu time spent up to now is      348.1 secs

     total energy              =    -140.93605680 Ry
     Harris-Foulkes estimate   =    -140.93615268 Ry
     estimated scf accuracy    <       0.00064304 Ry

     iteration # 12     ecut=    80.00 Ry     beta= 0.40
     Davidson diagonalization with overlap
     ethr =  4.32E-07,  avg # of iterations =  4.0

     negative rho (up, down):  8.526E-05 0.000E+00

     total cpu time spent up to now is      372.0 secs

     total energy              =    -140.93610438 Ry
     Harris-Foulkes estimate   =    -140.93611463 Ry
     estimated scf accuracy    <       0.00005852 Ry

     iteration # 13     ecut=    80.00 Ry     beta= 0.40
     Davidson diagonalization with overlap
     ethr =  6.29E-08,  avg # of iterations =  4.0

     negative rho (up, down):  8.561E-05 0.000E+00

     total cpu time spent up to now is      399.0 secs

     total energy              =    -140.93611016 Ry
     Harris-Foulkes estimate   =    -140.93611261 Ry
     estimated scf accuracy    <       0.00001221 Ry

     iteration # 14     ecut=    80.00 Ry     beta= 0.40
     Davidson diagonalization with overlap
     ethr =  1.31E-08,  avg # of iterations =  5.0

     negative rho (up, down):  8.572E-05 0.000E+00

     total cpu time spent up to now is      428.9 secs

     total energy              =    -140.93611219 Ry
     Harris-Foulkes estimate   =    -140.93611334 Ry
     estimated scf accuracy    <       0.00000459 Ry

     iteration # 15     ecut=    80.00 Ry     beta= 0.40
     Davidson diagonalization with overlap
     ethr =  4.93E-09,  avg # of iterations =  4.0

     negative rho (up, down):  8.583E-05 0.000E+00

     total cpu time spent up to now is      452.5 secs

     total energy              =    -140.93611233 Ry
     Harris-Foulkes estimate   =    -140.93611300 Ry
     estimated scf accuracy    <       0.00000381 Ry

     iteration # 16     ecut=    80.00 Ry     beta= 0.40
     Davidson diagonalization with overlap
     ethr =  4.10E-09,  avg # of iterations =  1.0

     negative rho (up, down):  8.589E-05 0.000E+00

     total cpu time spent up to now is      475.9 secs

     total energy              =    -140.93611249 Ry
     Harris-Foulkes estimate   =    -140.93611280 Ry
     estimated scf accuracy    <       0.00000144 Ry

     iteration # 17     ecut=    80.00 Ry     beta= 0.40
     Davidson diagonalization with overlap
     ethr =  1.55E-09,  avg # of iterations =  4.0

     negative rho (up, down):  8.596E-05 0.000E+00

     total cpu time spent up to now is      502.1 secs

     End of self-consistent calculation

          k = 0.0000 0.0000 0.0000 (448403 PWs)   bands (ev):

    -9.9528  -9.4483  -9.4332  -9.4327  -9.4259  -9.4255  -9.1459  -8.4047
    -8.4046  -8.3882  -8.3880  -8.3797  -8.3031  -8.2570  -8.2568  -7.5865
    -6.9325  -6.9323  -6.8232  -6.4865  -6.4772  -6.4770  -6.3701  -6.3700
    -5.4640  -4.8436  -4.8432  -4.8368  -4.7357  -4.7354  -4.4780  -4.4680
    -4.4427  -4.4427  -4.1225  -4.1221  -3.9778  -3.4712  -3.4688  -3.4686
    -3.4576  -3.4574  -3.4017  -3.2744  -3.2743  -3.2224  -3.2075  -2.9743
    -2.9654  -2.9651  -2.9388  -2.5198  -2.5195  -2.4500  -2.4482  -2.4313

     the Fermi energy is    -3.0910 ev

!    total energy              =    -140.93611219 Ry
     Harris-Foulkes estimate   =    -140.93611270 Ry
     estimated scf accuracy    <       0.00000057 Ry

     The total energy is the sum of the following terms:

     one-electron contribution =    -502.03529539 Ry
     hartree contribution      =     259.76209786 Ry
     xc contribution           =     -61.33563617 Ry
     ewald contribution        =     162.75371665 Ry
     smearing contrib. (-TS)   =      -0.08099513 Ry

     convergence has been achieved in  17 iterations

     negative rho (up, down):  8.596E-05 0.000E+00

     Forces acting on atoms (cartesian axes, Ry/au):

     atom    1 type  1   force =     0.00111528    0.00060686    0.00000000
     atom    2 type  1   force =    -0.00319498   -0.00105762    0.00000000
     atom    3 type  1   force =     0.00376810   -0.00395239    0.00000000
     atom    4 type  1   force =    -0.00258338   -0.00215828    0.00000000
     atom    5 type  1   force =     0.00000000    0.00000694    0.00000000
     atom    6 type  1   force =    -0.00187402    0.00105584    0.00000000
     atom    7 type  1   force =    -0.00155696    0.00514258    0.00000000
     atom    8 type  1   force =     0.00000000   -0.00214026    0.00000000
     atom    9 type  1   force =     0.00000000    0.01516380    0.00000000
     atom   10 type  1   force =     0.00319498   -0.00105762    0.00000000
     atom   11 type  1   force =     0.01312862   -0.00751585    0.00000000
     atom   12 type  1   force =     0.00529620   -0.00121556    0.00000000
     atom   13 type  1   force =     0.00063561    0.00325162    0.00000000
     atom   14 type  1   force =     0.00155696    0.00514258    0.00000000
     atom   15 type  1   force =    -0.00201873   -0.00118442    0.00000000
     atom   16 type  1   force =    -0.00111528    0.00060686    0.00000000
     atom   17 type  1   force =     0.00112882   -0.00056009    0.00000000
     atom   18 type  1   force =    -0.01312862   -0.00751585    0.00000000
     atom   19 type  1   force =     0.00258338   -0.00215828    0.00000000
     atom   20 type  1   force =     0.00000000   -0.00134038    0.00000000
     atom   21 type  1   force =    -0.00063561    0.00325162    0.00000000
     atom   22 type  1   force =    -0.00041625   -0.00032854    0.00000000
     atom   23 type  1   force =     0.00000000    0.00135409    0.00000000
     atom   24 type  1   force =     0.00000000    0.00049884    0.00000000
     atom   25 type  1   force =    -0.00112882   -0.00056009    0.00000000
     atom   26 type  1   force =    -0.00376810   -0.00395239    0.00000000
     atom   27 type  1   force =     0.00000000    0.00228868    0.00000000
     atom   28 type  1   force =    -0.00529620   -0.00121556    0.00000000
     atom   29 type  1   force =     0.00187402    0.00105584    0.00000000
     atom   30 type  1   force =     0.00041625   -0.00032854    0.00000000
     atom   31 type  1   force =     0.00201873   -0.00118442    0.00000000

     Total force =     0.031180     Total SCF correction =     0.000612


     Computing stress (Cartesian axis) and pressure


     negative rho (up, down):  8.596E-05 0.000E+00
          total   stress  (Ry/bohr**3)                   (kbar)     P=   -0.57
  -0.00000583   0.00000000   0.00000000         -0.86      0.00      0.00
   0.00000000  -0.00000575   0.00000000          0.00     -0.85      0.00
   0.00000000   0.00000000  -0.00000001          0.00      0.00     -0.00


     BFGS Geometry Optimization

     number of scf cycles    =   1
     number of bfgs steps    =   0

     enthalpy new            =    -140.9361121907 Ry

     new trust radius        =       0.0151637986 bohr
     new conv_thr            =       0.0000010000 Ry

     new unit-cell volume =  37119.57186 a.u.^3 (  5500.55297 Ang^3 )
     density =      0.28059 g/cm^3

CELL_PARAMETERS (alat= 33.68096681)
   0.999854357  -0.000000000   0.000000000
  -0.499927179   0.865901020   0.000000000
   0.000000000   0.000000000   1.122132950

ATOMIC_POSITIONS (angstrom)
Al       0.000589507   2.572539472   0.000000000
Al       2.225911795   1.285549094   0.000000000
Al      -2.225577051   6.428436041   0.000000000
Al      -0.001334772   5.143275606   0.000000000
Al      -4.455140916  10.288839794   0.000000000
Al      -2.228529616   9.003285072   0.000000000
Al      -6.683534870  14.149865942   0.000000000
Al      -4.455108236  12.859902885   0.000000000
Al       4.455171253   2.580259758   0.000000000
Al       6.684464563   1.285567287   0.000000000
Al       2.234547442   6.426568799   0.000000000
Al       0.002833141  10.288211163   0.000000000
Al       2.227970069   9.004465058   0.000000000
Al      -2.226715453  14.149884135   0.000000000
Al      -0.001004505  12.860426816   0.000000000
Al       8.909752998   2.572575859   0.000000000
Al      11.138543193   1.285848728   0.000000000
Al       6.675826571   6.426586993   0.000000000
Al       8.911742637   5.143311993   0.000000000
Al       4.455202761  10.288163316   0.000000000
Al       6.682469305   9.004483251   0.000000000
Al       2.227412359  14.147007553   0.000000000
Al       4.455235441  12.861788138   0.000000000
Al      13.365514930   2.572536897   0.000000000
Al      15.592520518   1.285866921   0.000000000
Al      11.135951064   6.428490621   0.000000000
Al      13.365547610   5.145683077   0.000000000
Al       8.907572381  10.288247549   0.000000000
Al      11.138968990   9.003339652   0.000000000
Al       6.683024671  14.147025746   0.000000000
Al       8.911475388  12.860463203   0.000000000



     Writing output data file 12al_planar_2x2_vcr.save/
     NEW-OLD atomic charge density approx. for the potential

     negative rho (up, down):  8.597E-05 0.000E+00
     extrapolated charge   92.97311, renormalised to   93.00000

     total cpu time spent up to now is      579.8 secs

     Self-consistent Calculation

     iteration #  1     ecut=    80.00 Ry     beta= 0.40
     Davidson diagonalization with overlap
     ethr =  1.00E-06,  avg # of iterations =  4.0

     negative rho (up, down):  8.607E-05 0.000E+00

     total cpu time spent up to now is      611.0 secs

     total energy              =    -140.93703552 Ry
     Harris-Foulkes estimate   =    -141.07017003 Ry
     estimated scf accuracy    <       0.00013311 Ry

     iteration #  2     ecut=    80.00 Ry     beta= 0.40
     Davidson diagonalization with overlap
     ethr =  1.43E-07,  avg # of iterations =  5.0

     negative rho (up, down):  8.604E-05 0.000E+00

     total cpu time spent up to now is      644.4 secs

     total energy              =    -140.93695235 Ry
     Harris-Foulkes estimate   =    -140.93729399 Ry
     estimated scf accuracy    <       0.00285194 Ry

     iteration #  3     ecut=    80.00 Ry     beta= 0.40
     Davidson diagonalization with overlap
     ethr =  1.43E-07,  avg # of iterations =  5.0

     negative rho (up, down):  8.604E-05 0.000E+00

     total cpu time spent up to now is      676.5 secs

     total energy              =    -140.93711045 Ry
     Harris-Foulkes estimate   =    -140.93711452 Ry
     estimated scf accuracy    <       0.00001632 Ry

     iteration #  4     ecut=    80.00 Ry     beta= 0.40
     Davidson diagonalization with overlap
     ethr =  1.75E-08,  avg # of iterations =  5.0

     negative rho (up, down):  8.602E-05 0.000E+00

     total cpu time spent up to now is      704.4 secs

     total energy              =    -140.93711076 Ry
     Harris-Foulkes estimate   =    -140.93711486 Ry
     estimated scf accuracy    <       0.00001968 Ry

     iteration #  5     ecut=    80.00 Ry     beta= 0.40
     Davidson diagonalization with overlap
     ethr =  1.75E-08,  avg # of iterations =  3.0

     negative rho (up, down):  8.598E-05 0.000E+00

     total cpu time spent up to now is      727.3 secs

     total energy              =    -140.93711226 Ry
     Harris-Foulkes estimate   =    -140.93711417 Ry
     estimated scf accuracy    <       0.00001194 Ry

     iteration #  6     ecut=    80.00 Ry     beta= 0.40
     Davidson diagonalization with overlap
     ethr =  1.28E-08,  avg # of iterations =  2.0

     negative rho (up, down):  8.591E-05 0.000E+00

     total cpu time spent up to now is      754.0 secs

     End of self-consistent calculation

          k = 0.0000 0.0000 0.0000 (448403 PWs)   bands (ev):

    -9.9530  -9.4486  -9.4333  -9.4328  -9.4251  -9.4246  -9.1436  -8.4037
    -8.4034  -8.3843  -8.3842  -8.3823  -8.3047  -8.2542  -8.2540  -7.5849
    -6.9320  -6.9318  -6.8226  -6.4818  -6.4774  -6.4771  -6.3719  -6.3718
    -5.4690  -4.8394  -4.8391  -4.8347  -4.7362  -4.7360  -4.4763  -4.4670
    -4.4428  -4.4427  -4.1248  -4.1244  -3.9777  -3.4712  -3.4675  -3.4671
    -3.4580  -3.4577  -3.3996  -3.2728  -3.2727  -3.2209  -3.2171  -2.9699
    -2.9634  -2.9631  -2.9407  -2.5168  -2.5165  -2.4465  -2.4449  -2.4332

     the Fermi energy is    -3.0905 ev

!    total energy              =    -140.93711321 Ry
     Harris-Foulkes estimate   =    -140.93711351 Ry
     estimated scf accuracy    <       0.00000089 Ry

     The total energy is the sum of the following terms:

     one-electron contribution =    -502.12313484 Ry
     hartree contribution      =     259.80488421 Ry
     xc contribution           =     -61.33349451 Ry
     ewald contribution        =     162.79529182 Ry
     smearing contrib. (-TS)   =      -0.08065988 Ry

     convergence has been achieved in   6 iterations

     negative rho (up, down):  8.591E-05 0.000E+00

     Forces acting on atoms (cartesian axes, Ry/au):

     atom    1 type  1   force =     0.00080453    0.00044643    0.00000000
     atom    2 type  1   force =    -0.00212602   -0.00035231    0.00000000
     atom    3 type  1   force =     0.00331810   -0.00325144    0.00000000
     atom    4 type  1   force =    -0.00141497   -0.00160875    0.00000000
     atom    5 type  1   force =     0.00000000    0.00000185    0.00000000
     atom    6 type  1   force =    -0.00138587    0.00078544    0.00000000
     atom    7 type  1   force =    -0.00116974    0.00441721    0.00000000
     atom    8 type  1   force =    -0.00000000   -0.00157128    0.00000000
     atom    9 type  1   force =     0.00000000    0.01498451    0.00000000
     atom   10 type  1   force =     0.00212602   -0.00035231    0.00000000
     atom   11 type  1   force =     0.01299062   -0.00743483    0.00000000
     atom   12 type  1   force =     0.00447179   -0.00119403    0.00000000
     atom   13 type  1   force =     0.00072740    0.00197526    0.00000000
     atom   14 type  1   force =     0.00116974    0.00441721    0.00000000
     atom   15 type  1   force =    -0.00198503   -0.00115390    0.00000000
     atom   16 type  1   force =    -0.00080453    0.00044643    0.00000000
     atom   17 type  1   force =     0.00089542   -0.00042993    0.00000000
     atom   18 type  1   force =    -0.01299062   -0.00743483    0.00000000
     atom   19 type  1   force =     0.00141497   -0.00160875    0.00000000
     atom   20 type  1   force =    -0.00000000   -0.00097971    0.00000000
     atom   21 type  1   force =    -0.00072740    0.00197526    0.00000000
     atom   22 type  1   force =    -0.00062621   -0.00043725    0.00000000
     atom   23 type  1   force =     0.00000000    0.00106858    0.00000000
     atom   24 type  1   force =     0.00000000    0.00076137    0.00000000
     atom   25 type  1   force =    -0.00089542   -0.00042993    0.00000000
     atom   26 type  1   force =    -0.00331810   -0.00325144    0.00000000
     atom   27 type  1   force =     0.00000000    0.00221084    0.00000000
     atom   28 type  1   force =    -0.00447179   -0.00119403    0.00000000
     atom   29 type  1   force =     0.00138587    0.00078544    0.00000000
     atom   30 type  1   force =     0.00062621   -0.00043725    0.00000000
     atom   31 type  1   force =     0.00198503   -0.00115390    0.00000000

     Total force =     0.029295     Total SCF correction =     0.000537


     Computing stress (Cartesian axis) and pressure


     negative rho (up, down):  8.591E-05 0.000E+00
          total   stress  (Ry/bohr**3)                   (kbar)     P=   -0.58
  -0.00000596  -0.00000000  -0.00000000         -0.88     -0.00     -0.00
   0.00000000  -0.00000588  -0.00000000          0.00     -0.86     -0.00
   0.00000000   0.00000000  -0.00000005          0.00      0.00     -0.01


     number of scf cycles    =   2
     number of bfgs steps    =   1

     enthalpy old            =    -140.9361121907 Ry
     enthalpy new            =    -140.9371132060 Ry

     CASE: enthalpy_new < enthalpy_old


     WARNING: bfgs curvature condition failed, Theta= 0.852
     new trust radius        =       0.0227424310 bohr
     new conv_thr            =       0.0000010000 Ry

     new unit-cell volume =  37103.12302 a.u.^3 (  5498.11551 Ang^3 )
     density =      0.28071 g/cm^3

CELL_PARAMETERS (alat= 33.68096681)
   0.999631296  -0.000000000   0.000000000
  -0.499815648   0.865710447   0.000000000
   0.000000000   0.000000000   1.122132950

ATOMIC_POSITIONS (angstrom)
Al       0.001330239   2.572380613   0.000000000
Al       2.223379385   1.284762426   0.000000000
Al      -2.222286976   6.424201878   0.000000000
Al      -0.002833356   5.140684823   0.000000000
Al      -4.454147001  10.286578441   0.000000000
Al      -2.229293793   9.002016470   0.000000000
Al      -6.683100642  14.150510476   0.000000000
Al      -4.454114329  12.855637596   0.000000000
Al       4.454177331   2.591724005   0.000000000
Al       6.685009122   1.284780616   0.000000000
Al       2.244474465   6.419186943   0.000000000
Al       0.006666032  10.284985813   0.000000000
Al       2.228025447   9.004463977   0.000000000
Al      -2.225161860  14.150528665   0.000000000
Al      -0.002601326  12.856664594   0.000000000
Al       8.907024424   2.572416992   0.000000000
Al      11.136847390   1.285181132   0.000000000
Al       6.663911699   6.419205133   0.000000000
Al       8.911253364   5.140721202   0.000000000
Al       4.454208833  10.285002433   0.000000000
Al       6.680426063   9.004482167   0.000000000
Al       2.226481111  14.143578780   0.000000000
Al       4.454241506  12.859901379   0.000000000
Al      13.362533165   2.572496509   0.000000000
Al      15.588252786   1.285199322   0.000000000
Al      11.130673140   6.424256446   0.000000000
Al      13.362565838   5.146342006   0.000000000
Al       8.901751634  10.285022192   0.000000000
Al      11.137745303   9.002071038   0.000000000
Al       6.681968055  14.143596970   0.000000000
Al       8.911084338  12.856700973   0.000000000



     Writing output data file 12al_planar_2x2_vcr.save/
     NEW-OLD atomic charge density approx. for the potential

     negative rho (up, down):  8.592E-05 0.000E+00
     extrapolated charge   92.95880, renormalised to   93.00000

     total cpu time spent up to now is      835.5 secs

     Self-consistent Calculation

     iteration #  1     ecut=    80.00 Ry     beta= 0.40
     Davidson diagonalization with overlap
     ethr =  1.00E-06,  avg # of iterations =  4.0

     negative rho (up, down):  8.608E-05 0.000E+00

     total cpu time spent up to now is      872.7 secs

     total energy              =    -140.93841564 Ry
     Harris-Foulkes estimate   =    -141.14240404 Ry
     estimated scf accuracy    <       0.00011523 Ry

     iteration #  2     ecut=    80.00 Ry     beta= 0.40
     Davidson diagonalization with overlap
     ethr =  1.24E-07,  avg # of iterations =  5.0

     negative rho (up, down):  8.604E-05 0.000E+00

     total cpu time spent up to now is      910.6 secs

     total energy              =    -140.93839290 Ry
     Harris-Foulkes estimate   =    -140.93856698 Ry
     estimated scf accuracy    <       0.00129473 Ry

     iteration #  3     ecut=    80.00 Ry     beta= 0.40
     Davidson diagonalization with overlap
     ethr =  1.24E-07,  avg # of iterations =  4.0

     negative rho (up, down):  8.602E-05 0.000E+00

     total cpu time spent up to now is      937.4 secs

     total energy              =    -140.93847542 Ry
     Harris-Foulkes estimate   =    -140.93848482 Ry
     estimated scf accuracy    <       0.00004183 Ry

     iteration #  4     ecut=    80.00 Ry     beta= 0.40
     Davidson diagonalization with overlap
     ethr =  4.50E-08,  avg # of iterations =  4.0

     negative rho (up, down):  8.598E-05 0.000E+00

     total cpu time spent up to now is      962.9 secs

     total energy              =    -140.93847633 Ry
     Harris-Foulkes estimate   =    -140.93848213 Ry
     estimated scf accuracy    <       0.00002555 Ry

     iteration #  5     ecut=    80.00 Ry     beta= 0.40
     Davidson diagonalization with overlap
     ethr =  2.75E-08,  avg # of iterations =  3.0

     negative rho (up, down):  8.593E-05 0.000E+00

     total cpu time spent up to now is      989.1 secs

     total energy              =    -140.93847809 Ry
     Harris-Foulkes estimate   =    -140.93848170 Ry
     estimated scf accuracy    <       0.00002110 Ry

     iteration #  6     ecut=    80.00 Ry     beta= 0.40
     Davidson diagonalization with overlap
     ethr =  2.27E-08,  avg # of iterations =  2.0

     negative rho (up, down):  8.587E-05 0.000E+00

     total cpu time spent up to now is     1011.6 secs

     total energy              =    -140.93848009 Ry
     Harris-Foulkes estimate   =    -140.93848052 Ry
     estimated scf accuracy    <       0.00000268 Ry

     iteration #  7     ecut=    80.00 Ry     beta= 0.40
     Davidson diagonalization with overlap
     ethr =  2.88E-09,  avg # of iterations =  5.0

     negative rho (up, down):  8.587E-05 0.000E+00

     total cpu time spent up to now is     1041.2 secs

     total energy              =    -140.93848005 Ry
     Harris-Foulkes estimate   =    -140.93848102 Ry
     estimated scf accuracy    <       0.00000612 Ry

     iteration #  8     ecut=    80.00 Ry     beta= 0.40
     Davidson diagonalization with overlap
     ethr =  2.88E-09,  avg # of iterations =  4.0

     negative rho (up, down):  8.585E-05 0.000E+00

     total cpu time spent up to now is     1067.1 secs

     End of self-consistent calculation

          k = 0.0000 0.0000 0.0000 (448403 PWs)   bands (ev):

    -9.9541  -9.4493  -9.4357  -9.4353  -9.4240  -9.4236  -9.1416  -8.4033
    -8.4033  -8.3870  -8.3801  -8.3800  -8.3073  -8.2509  -8.2507  -7.5838
    -6.9325  -6.9323  -6.8228  -6.4781  -6.4780  -6.4766  -6.3751  -6.3750
    -5.4773  -4.8347  -4.8343  -4.8327  -4.7376  -4.7374  -4.4749  -4.4663
    -4.4437  -4.4436  -4.1294  -4.1289  -3.9783  -3.4713  -3.4670  -3.4666
    -3.4589  -3.4585  -3.3975  -3.2715  -3.2714  -3.2327  -3.2197  -2.9652
    -2.9611  -2.9609  -2.9437  -2.5135  -2.5133  -2.4423  -2.4411  -2.4366

     the Fermi energy is    -3.0906 ev

!    total energy              =    -140.93847990 Ry
     Harris-Foulkes estimate   =    -140.93848050 Ry
     estimated scf accuracy    <       0.00000079 Ry

     The total energy is the sum of the following terms:

     one-electron contribution =    -502.26178403 Ry
     hartree contribution      =     259.87547535 Ry
     xc contribution           =     -61.33161489 Ry
     ewald contribution        =     162.85960572 Ry
     smearing contrib. (-TS)   =      -0.08016205 Ry

     convergence has been achieved in   8 iterations

     negative rho (up, down):  8.585E-05 0.000E+00

     Forces acting on atoms (cartesian axes, Ry/au):

     atom    1 type  1   force =     0.00038925    0.00020862    0.00000000
     atom    2 type  1   force =    -0.00059762    0.00061819    0.00000000
     atom    3 type  1   force =     0.00267036   -0.00226852    0.00000000
     atom    4 type  1   force =     0.00019713   -0.00077654    0.00000000
     atom    5 type  1   force =     0.00000000    0.00000650    0.00000000
     atom    6 type  1   force =    -0.00077018    0.00040681    0.00000000
     atom    7 type  1   force =    -0.00065380    0.00338473    0.00000000
     atom    8 type  1   force =    -0.00000000   -0.00086603    0.00000000
     atom    9 type  1   force =     0.00000000    0.01482471    0.00000000
     atom   10 type  1   force =     0.00059762    0.00061819    0.00000000
     atom   11 type  1   force =     0.01283260   -0.00735399    0.00000000
     atom   12 type  1   force =     0.00333061   -0.00114112    0.00000000
     atom   13 type  1   force =     0.00079346    0.00017773    0.00000000
     atom   14 type  1   force =     0.00065380    0.00338473    0.00000000
     atom   15 type  1   force =    -0.00192335   -0.00111365    0.00000000
     atom   16 type  1   force =    -0.00038925    0.00020862    0.00000000
     atom   17 type  1   force =     0.00065468   -0.00031049    0.00000000
     atom   18 type  1   force =    -0.01283260   -0.00735399    0.00000000
     atom   19 type  1   force =    -0.00019713   -0.00077654    0.00000000
     atom   20 type  1   force =    -0.00000000   -0.00049353    0.00000000
     atom   21 type  1   force =    -0.00079346    0.00017773    0.00000000
     atom   22 type  1   force =    -0.00088297   -0.00055970    0.00000000
     atom   23 type  1   force =     0.00000000    0.00077695    0.00000000
     atom   24 type  1   force =     0.00000000    0.00102716    0.00000000
     atom   25 type  1   force =    -0.00065468   -0.00031049    0.00000000
     atom   26 type  1   force =    -0.00267036   -0.00226852    0.00000000
     atom   27 type  1   force =     0.00000000    0.00218008    0.00000000
     atom   28 type  1   force =    -0.00333061   -0.00114112    0.00000000
     atom   29 type  1   force =     0.00077018    0.00040681    0.00000000
     atom   30 type  1   force =     0.00088297   -0.00055970    0.00000000
     atom   31 type  1   force =     0.00192335   -0.00111365    0.00000000

     Total force =     0.027512     Total SCF correction =     0.000643


     Computing stress (Cartesian axis) and pressure


     negative rho (up, down):  8.585E-05 0.000E+00
          total   stress  (Ry/bohr**3)                   (kbar)     P=   -0.60
  -0.00000613  -0.00000000   0.00000000         -0.90     -0.00      0.00
   0.00000000  -0.00000605   0.00000000          0.00     -0.89      0.00
  -0.00000000  -0.00000000   0.00000002         -0.00     -0.00      0.00


     number of scf cycles    =   3
     number of bfgs steps    =   2

     enthalpy old            =    -140.9371132060 Ry
     enthalpy new            =    -140.9384799043 Ry

     CASE: enthalpy_new < enthalpy_old

     new trust radius        =       0.0341061385 bohr
     new conv_thr            =       0.0000010000 Ry

     new unit-cell volume =  37077.95004 a.u.^3 (  5494.38526 Ang^3 )
     density =      0.28090 g/cm^3

CELL_PARAMETERS (alat= 33.68096681)
   0.999289774  -0.000000000   0.000000000
  -0.499644887   0.865418766   0.000000000
   0.000000000   0.000000000   1.122132950

ATOMIC_POSITIONS (angstrom)
Al       0.002188531   2.571978857   0.000000000
Al       2.220506103   1.284174735   0.000000000
Al      -2.217721790   6.418400785   0.000000000
Al      -0.004087395   5.137276244   0.000000000
Al      -4.452625250  10.283120778   0.000000000
Al      -2.230052981   8.999821868   0.000000000
Al      -6.682089942  14.150763675   0.000000000
Al      -4.452592588  12.849578227   0.000000000
Al       4.452655570   2.608892894   0.000000000
Al       6.684838869   1.284192918   0.000000000
Al       2.259326072   6.408077638   0.000000000
Al       0.011731123  10.280106058   0.000000000
Al       2.228134869   9.003293915   0.000000000
Al      -2.223129068  14.150781858   0.000000000
Al      -0.004968536  12.850953220   0.000000000
Al       8.903122608   2.572015224   0.000000000
Al      11.134086382   1.284239585   0.000000000
Al       6.646016557   6.408095821   0.000000000
Al       8.909463858   5.137312610   0.000000000
Al       4.452687060  10.280487923   0.000000000
Al       6.677273084   9.003312099   0.000000000
Al       2.224907541  14.138263473   0.000000000
Al       4.452719722  12.856815198   0.000000000
Al      13.357967880   2.572582774   0.000000000
Al      15.581883211   1.284257768   0.000000000
Al      11.123064420   6.418455334   0.000000000
Al      13.358000542   5.147293353   0.000000000
Al       8.893642998  10.280142425   0.000000000
Al      11.135460935   8.999876418   0.000000000
Al       6.680498070  14.138281657   0.000000000
Al       8.910407980  12.850989587   0.000000000



     Writing output data file 12al_planar_2x2_vcr.save/
     NEW-OLD atomic charge density approx. for the potential

     negative rho (up, down):  8.588E-05 0.000E+00
     extrapolated charge   92.93691, renormalised to   93.00000

     total cpu time spent up to now is     1142.7 secs

     Self-consistent Calculation

     iteration #  1     ecut=    80.00 Ry     beta= 0.40
     Davidson diagonalization with overlap
     ethr =  1.00E-06,  avg # of iterations =  5.0

     negative rho (up, down):  8.615E-05 0.000E+00

     total cpu time spent up to now is     1181.9 secs

     total energy              =    -140.94023469 Ry
     Harris-Foulkes estimate   =    -141.25276795 Ry
     estimated scf accuracy    <       0.00020586 Ry

     iteration #  2     ecut=    80.00 Ry     beta= 0.40
     Davidson diagonalization with overlap
     ethr =  2.21E-07,  avg # of iterations =  7.0

     negative rho (up, down):  8.609E-05 0.000E+00

     total cpu time spent up to now is     1217.0 secs

     total energy              =    -140.94021849 Ry
     Harris-Foulkes estimate   =    -140.94046483 Ry
     estimated scf accuracy    <       0.00165633 Ry

     iteration #  3     ecut=    80.00 Ry     beta= 0.40
     Davidson diagonalization with overlap
     ethr =  2.21E-07,  avg # of iterations =  5.0

     negative rho (up, down):  8.599E-05 0.000E+00

     total cpu time spent up to now is     1246.2 secs

     total energy              =    -140.94033723 Ry
     Harris-Foulkes estimate   =    -140.94036208 Ry
     estimated scf accuracy    <       0.00013863 Ry

     iteration #  4     ecut=    80.00 Ry     beta= 0.40
     Davidson diagonalization with overlap
     ethr =  1.49E-07,  avg # of iterations =  3.0

     negative rho (up, down):  8.591E-05 0.000E+00

     total cpu time spent up to now is     1267.7 secs

     total energy              =    -140.94034204 Ry
     Harris-Foulkes estimate   =    -140.94035017 Ry
     estimated scf accuracy    <       0.00003147 Ry

     iteration #  5     ecut=    80.00 Ry     beta= 0.40
     Davidson diagonalization with overlap
     ethr =  3.38E-08,  avg # of iterations =  5.0

     negative rho (up, down):  8.582E-05 0.000E+00

     total cpu time spent up to now is     1294.4 secs

     total energy              =    -140.94034280 Ry
     Harris-Foulkes estimate   =    -140.94035256 Ry
     estimated scf accuracy    <       0.00006005 Ry

     iteration #  6     ecut=    80.00 Ry     beta= 0.40
     Davidson diagonalization with overlap
     ethr =  3.38E-08,  avg # of iterations =  3.0

     negative rho (up, down):  8.575E-05 0.000E+00

     total cpu time spent up to now is     1318.8 secs

     total energy              =    -140.94034785 Ry
     Harris-Foulkes estimate   =    -140.94034845 Ry
     estimated scf accuracy    <       0.00000495 Ry

     iteration #  7     ecut=    80.00 Ry     beta= 0.40
     Davidson diagonalization with overlap
     ethr =  5.32E-09,  avg # of iterations =  5.0

     negative rho (up, down):  8.574E-05 0.000E+00

     total cpu time spent up to now is     1344.6 secs

     total energy              =    -140.94034815 Ry
     Harris-Foulkes estimate   =    -140.94034897 Ry
     estimated scf accuracy    <       0.00000482 Ry

     iteration #  8     ecut=    80.00 Ry     beta= 0.40
     Davidson diagonalization with overlap
     ethr =  5.19E-09,  avg # of iterations =  3.0

     negative rho (up, down):  8.575E-05 0.000E+00

     total cpu time spent up to now is     1367.6 secs

     total energy              =    -140.94034856 Ry
     Harris-Foulkes estimate   =    -140.94034875 Ry
     estimated scf accuracy    <       0.00000129 Ry

     iteration #  9     ecut=    80.00 Ry     beta= 0.40
     Davidson diagonalization with overlap
     ethr =  1.38E-09,  avg # of iterations =  3.0

     negative rho (up, down):  8.575E-05 0.000E+00

     total cpu time spent up to now is     1390.9 secs

     End of self-consistent calculation

          k = 0.0000 0.0000 0.0000 (448403 PWs)   bands (ev):

    -9.9552  -9.4500  -9.4391  -9.4387  -9.4211  -9.4208  -9.1385  -8.4026
    -8.4025  -8.3923  -8.3744  -8.3743  -8.3100  -8.2449  -8.2449  -7.5821
    -6.9326  -6.9325  -6.8228  -6.4782  -6.4780  -6.4692  -6.3783  -6.3781
    -5.4887  -4.8292  -4.8275  -4.8273  -4.7383  -4.7381  -4.4723  -4.4644
    -4.4443  -4.4442  -4.1352  -4.1348  -3.9787  -3.4713  -3.4673  -3.4668
    -3.4581  -3.4577  -3.3936  -3.2688  -3.2687  -3.2554  -3.2179  -2.9603
    -2.9574  -2.9572  -2.9440  -2.5082  -2.5081  -2.4404  -2.4369  -2.4355

     the Fermi energy is    -3.0902 ev

!    total energy              =    -140.94034854 Ry
     Harris-Foulkes estimate   =    -140.94034869 Ry
     estimated scf accuracy    <       0.00000027 Ry

     The total energy is the sum of the following terms:

     one-electron contribution =    -502.47034510 Ry
     hartree contribution      =     259.97866696 Ry
     xc contribution           =     -61.32830560 Ry
     ewald contribution        =     162.95897511 Ry
     smearing contrib. (-TS)   =      -0.07933991 Ry

     convergence has been achieved in   9 iterations

     negative rho (up, down):  8.575E-05 0.000E+00

     Forces acting on atoms (cartesian axes, Ry/au):

     atom    1 type  1   force =    -0.00009322   -0.00006333    0.00000000
     atom    2 type  1   force =     0.00136562    0.00185577    0.00000000
     atom    3 type  1   force =     0.00189567   -0.00107466    0.00000000
     atom    4 type  1   force =     0.00225491    0.00027639    0.00000000
     atom    5 type  1   force =     0.00000000    0.00002048    0.00000000
     atom    6 type  1   force =     0.00002876   -0.00005909    0.00000000
     atom    7 type  1   force =    -0.00002696    0.00213350    0.00000000
     atom    8 type  1   force =     0.00000000    0.00004980    0.00000000
     atom    9 type  1   force =     0.00000000    0.01474748    0.00000000
     atom   10 type  1   force =    -0.00136562    0.00185577    0.00000000
     atom   11 type  1   force =     0.01278024   -0.00732898    0.00000000
     atom   12 type  1   force =     0.00193537   -0.00107250    0.00000000
     atom   13 type  1   force =     0.00088381   -0.00212849    0.00000000
     atom   14 type  1   force =     0.00002696    0.00213350    0.00000000
     atom   15 type  1   force =    -0.00189192   -0.00107199    0.00000000
     atom   16 type  1   force =     0.00009322   -0.00006333    0.00000000
     atom   17 type  1   force =     0.00032234   -0.00010917    0.00000000
     atom   18 type  1   force =    -0.01278024   -0.00732898    0.00000000
     atom   19 type  1   force =    -0.00225491    0.00027639    0.00000000
     atom   20 type  1   force =     0.00000000    0.00006847    0.00000000
     atom   21 type  1   force =    -0.00088381   -0.00212849    0.00000000
     atom   22 type  1   force =    -0.00119883   -0.00073872    0.00000000
     atom   23 type  1   force =     0.00000000    0.00037720    0.00000000
     atom   24 type  1   force =     0.00000000    0.00136065    0.00000000
     atom   25 type  1   force =    -0.00032234   -0.00010917    0.00000000
     atom   26 type  1   force =    -0.00189567   -0.00107466    0.00000000
     atom   27 type  1   force =     0.00000000    0.00213848    0.00000000
     atom   28 type  1   force =    -0.00193537   -0.00107250    0.00000000
     atom   29 type  1   force =    -0.00002876   -0.00005909    0.00000000
     atom   30 type  1   force =     0.00119883   -0.00073872    0.00000000
     atom   31 type  1   force =     0.00189192   -0.00107199    0.00000000

     Total force =     0.027052     Total SCF correction =     0.000259


     Computing stress (Cartesian axis) and pressure


     negative rho (up, down):  8.575E-05 0.000E+00
          total   stress  (Ry/bohr**3)                   (kbar)     P=   -0.62
  -0.00000639  -0.00000000   0.00000000         -0.94     -0.00      0.00
   0.00000000  -0.00000629   0.00000000          0.00     -0.92      0.00
   0.00000000   0.00000000   0.00000004          0.00      0.00      0.01


     number of scf cycles    =   4
     number of bfgs steps    =   3

     enthalpy old            =    -140.9384799043 Ry
     enthalpy new            =    -140.9403485402 Ry

     CASE: enthalpy_new < enthalpy_old

     new trust radius        =       0.0511419709 bohr
     new conv_thr            =       0.0000010000 Ry

     new unit-cell volume =  37039.72382 a.u.^3 (  5488.72071 Ang^3 )
     density =      0.28119 g/cm^3

CELL_PARAMETERS (alat= 33.68096681)
   0.998770651  -0.000000000   0.000000000
  -0.499385326   0.864975894   0.000000000
   0.000000000   0.000000000   1.122132950

ATOMIC_POSITIONS (angstrom)
Al       0.003232754   2.571222536   0.000000000
Al       2.217207320   1.283928271   0.000000000
Al      -2.211256844   6.410273270   0.000000000
Al      -0.004898320   5.132682560   0.000000000
Al      -4.450312150  10.277879864   0.000000000
Al      -2.230762092   8.996234091   0.000000000
Al      -6.680207659  14.150411749   0.000000000
Al      -4.450279505  12.840884045   0.000000000
Al       4.450342454   2.634607126   0.000000000
Al       6.683511402   1.283946445   0.000000000
Al       2.281578704   6.391376988   0.000000000
Al       0.018610371  10.272760614   0.000000000
Al       2.228327672   9.000279735   0.000000000
Al      -2.220385167  14.150429922   0.000000000
Al      -0.008508194  12.842327327   0.000000000
Al       8.897452154   2.571258884   0.000000000
Al      11.129696576   1.282927909   0.000000000
Al       6.619137677   6.391395162   0.000000000
Al       8.905648517   5.132718908   0.000000000
Al       4.450373928  10.273935670   0.000000000
Al       6.672454000   9.000297909   0.000000000
Al       2.222371845  14.130108491   0.000000000
Al       4.450406573  12.851900107   0.000000000
Al      13.351028531   2.572862657   0.000000000
Al      15.572394302   1.282946083   0.000000000
Al      11.111973225   6.410327792   0.000000000
Al      13.351061176   5.148670086   0.000000000
Al       8.882137484  10.272796962   0.000000000
Al      11.131543763   8.996288613   0.000000000
Al       6.678407485  14.130126665   0.000000000
Al       8.909321339  12.842363675   0.000000000



     Writing output data file 12al_planar_2x2_vcr.save/
     NEW-OLD atomic charge density approx. for the potential

     negative rho (up, down):  8.580E-05 0.000E+00
     extrapolated charge   92.90410, renormalised to   93.00000

     total cpu time spent up to now is     1467.8 secs

     Self-consistent Calculation

     iteration #  1     ecut=    80.00 Ry     beta= 0.40
     Davidson diagonalization with overlap
     ethr =  1.00E-06,  avg # of iterations =  6.0

     negative rho (up, down):  8.620E-05 0.000E+00

     total cpu time spent up to now is     1508.7 secs

     total energy              =    -140.94272400 Ry
     Harris-Foulkes estimate   =    -141.41815707 Ry
     estimated scf accuracy    <       0.00039191 Ry

     iteration #  2     ecut=    80.00 Ry     beta= 0.40
     Davidson diagonalization with overlap
     ethr =  4.21E-07,  avg # of iterations =  6.0

     negative rho (up, down):  8.608E-05 0.000E+00

     total cpu time spent up to now is     1542.7 secs

     total energy              =    -140.94269440 Ry
     Harris-Foulkes estimate   =    -140.94327212 Ry
     estimated scf accuracy    <       0.00451389 Ry

     iteration #  3     ecut=    80.00 Ry     beta= 0.40
     Davidson diagonalization with overlap
     ethr =  4.21E-07,  avg # of iterations =  4.0

     negative rho (up, down):  8.599E-05 0.000E+00

     total cpu time spent up to now is     1569.8 secs

     total energy              =    -140.94295742 Ry
     Harris-Foulkes estimate   =    -140.94298220 Ry
     estimated scf accuracy    <       0.00010927 Ry

     iteration #  4     ecut=    80.00 Ry     beta= 0.40
     Davidson diagonalization with overlap
     ethr =  1.17E-07,  avg # of iterations =  4.0

     negative rho (up, down):  8.593E-05 0.000E+00

     total cpu time spent up to now is     1592.1 secs

     total energy              =    -140.94295434 Ry
     Harris-Foulkes estimate   =    -140.94297127 Ry
     estimated scf accuracy    <       0.00007326 Ry

     iteration #  5     ecut=    80.00 Ry     beta= 0.40
     Davidson diagonalization with overlap
     ethr =  7.88E-08,  avg # of iterations =  3.0

     negative rho (up, down):  8.577E-05 0.000E+00

     total cpu time spent up to now is     1613.4 secs

     total energy              =    -140.94295410 Ry
     Harris-Foulkes estimate   =    -140.94297507 Ry
     estimated scf accuracy    <       0.00013293 Ry

     iteration #  6     ecut=    80.00 Ry     beta= 0.40
     Davidson diagonalization with overlap
     ethr =  7.88E-08,  avg # of iterations =  2.0

     negative rho (up, down):  8.569E-05 0.000E+00

     total cpu time spent up to now is     1636.1 secs

     total energy              =    -140.94296432 Ry
     Harris-Foulkes estimate   =    -140.94296589 Ry
     estimated scf accuracy    <       0.00000880 Ry

     iteration #  7     ecut=    80.00 Ry     beta= 0.40
     Davidson diagonalization with overlap
     ethr =  9.47E-09,  avg # of iterations =  5.0

     negative rho (up, down):  8.568E-05 0.000E+00

     total cpu time spent up to now is     1664.5 secs

     total energy              =    -140.94296527 Ry
     Harris-Foulkes estimate   =    -140.94296678 Ry
     estimated scf accuracy    <       0.00001112 Ry

     iteration #  8     ecut=    80.00 Ry     beta= 0.40
     Davidson diagonalization with overlap
     ethr =  9.47E-09,  avg # of iterations =  3.0

     negative rho (up, down):  8.566E-05 0.000E+00

     total cpu time spent up to now is     1685.8 secs

     total energy              =    -140.94296522 Ry
     Harris-Foulkes estimate   =    -140.94296565 Ry
     estimated scf accuracy    <       0.00000203 Ry

     iteration #  9     ecut=    80.00 Ry     beta= 0.40
     Davidson diagonalization with overlap
     ethr =  2.18E-09,  avg # of iterations =  3.0

     negative rho (up, down):  8.558E-05 0.000E+00

     total cpu time spent up to now is     1709.5 secs

     End of self-consistent calculation

          k = 0.0000 0.0000 0.0000 (448403 PWs)   bands (ev):

    -9.9569  -9.4512  -9.4439  -9.4436  -9.4171  -9.4166  -9.1345  -8.4019
    -8.4018  -8.3986  -8.3676  -8.3675  -8.3136  -8.2354  -8.2353  -7.5799
    -6.9331  -6.9330  -6.8235  -6.4779  -6.4776  -6.4589  -6.3819  -6.3817
    -5.5051  -4.8244  -4.8180  -4.8179  -4.7380  -4.7378  -4.4687  -4.4616
    -4.4451  -4.4451  -4.1437  -4.1434  -3.9793  -3.4713  -3.4690  -3.4685
    -3.4554  -3.4549  -3.3876  -3.2896  -3.2648  -3.2647  -3.2157  -2.9604
    -2.9516  -2.9514  -2.9358  -2.5010  -2.5008  -2.4447  -2.4294  -2.4285

     the Fermi energy is    -3.0895 ev

!    total energy              =    -140.94296490 Ry
     Harris-Foulkes estimate   =    -140.94296522 Ry
     estimated scf accuracy    <       0.00000057 Ry

     The total energy is the sum of the following terms:

     one-electron contribution =    -502.78954151 Ry
     hartree contribution      =     260.13622836 Ry
     xc contribution           =     -61.32367588 Ry
     ewald contribution        =     163.11197049 Ry
     smearing contrib. (-TS)   =      -0.07794636 Ry

     convergence has been achieved in   9 iterations

     negative rho (up, down):  8.558E-05 0.000E+00

     Forces acting on atoms (cartesian axes, Ry/au):

     atom    1 type  1   force =    -0.00069039   -0.00040178    0.00000000
     atom    2 type  1   force =     0.00398740    0.00349632    0.00000000
     atom    3 type  1   force =     0.00082687    0.00044963    0.00000000
     atom    4 type  1   force =     0.00501312    0.00168796    0.00000000
     atom    5 type  1   force =     0.00000000    0.00001561    0.00000000
     atom    6 type  1   force =     0.00103901   -0.00065334    0.00000000
     atom    7 type  1   force =     0.00074411    0.00050452    0.00000000
     atom    8 type  1   force =     0.00000000    0.00120366    0.00000000
     atom    9 type  1   force =     0.00000000    0.01484268    0.00000000
     atom   10 type  1   force =    -0.00398740    0.00349632    0.00000000
     atom   11 type  1   force =     0.01285985   -0.00738356    0.00000000
     atom   12 type  1   force =     0.00010594   -0.00093671    0.00000000
     atom   13 type  1   force =     0.00098388   -0.00521875    0.00000000
     atom   14 type  1   force =    -0.00074411    0.00050452    0.00000000
     atom   15 type  1   force =    -0.00183496   -0.00102928    0.00000000
     atom   16 type  1   force =     0.00069039   -0.00040178    0.00000000
     atom   17 type  1   force =    -0.00006460    0.00010497    0.00000000
     atom   18 type  1   force =    -0.01285985   -0.00738356    0.00000000
     atom   19 type  1   force =    -0.00501312    0.00168796    0.00000000
     atom   20 type  1   force =     0.00000000    0.00080655    0.00000000
     atom   21 type  1   force =    -0.00098388   -0.00521875    0.00000000
     atom   22 type  1   force =    -0.00161360   -0.00095335    0.00000000
     atom   23 type  1   force =    -0.00000000   -0.00010839    0.00000000
     atom   24 type  1   force =     0.00000000    0.00181760    0.00000000
     atom   25 type  1   force =     0.00006460    0.00010497    0.00000000
     atom   26 type  1   force =    -0.00082687    0.00044963    0.00000000
     atom   27 type  1   force =     0.00000000    0.00208904    0.00000000
     atom   28 type  1   force =    -0.00010594   -0.00093671    0.00000000
     atom   29 type  1   force =    -0.00103901   -0.00065334    0.00000000
     atom   30 type  1   force =     0.00161360   -0.00095335    0.00000000
     atom   31 type  1   force =     0.00183496   -0.00102928    0.00000000

     Total force =     0.029391     Total SCF correction =     0.000469


     Computing stress (Cartesian axis) and pressure


     negative rho (up, down):  8.558E-05 0.000E+00
          total   stress  (Ry/bohr**3)                   (kbar)     P=   -0.65
  -0.00000674  -0.00000000  -0.00000000         -0.99     -0.00     -0.00
   0.00000000  -0.00000663  -0.00000000          0.00     -0.98     -0.00
   0.00000000   0.00000000   0.00000004          0.00      0.00      0.01


     number of scf cycles    =   5
     number of bfgs steps    =   4

     enthalpy old            =    -140.9403485402 Ry
     enthalpy new            =    -140.9429648992 Ry

     CASE: enthalpy_new < enthalpy_old

     new trust radius        =       0.0766736990 bohr
     new conv_thr            =       0.0000010000 Ry

     new unit-cell volume =  36982.03292 a.u.^3 (  5480.17181 Ang^3 )
     density =      0.28163 g/cm^3

CELL_PARAMETERS (alat= 33.68096681)
   0.997986811  -0.000000000   0.000000000
  -0.498993405   0.864306971   0.000000000
   0.000000000   0.000000000   1.122132950

ATOMIC_POSITIONS (angstrom)
Al       0.004559175   2.569937296   0.000000000
Al       2.213377884   1.284241545   0.000000000
Al      -2.202034566   6.398698396   0.000000000
Al      -0.004938129   5.126379682   0.000000000
Al      -4.446819521  10.269958212   0.000000000
Al      -2.231389194   8.990555244   0.000000000
Al      -6.677034793  14.149094415   0.000000000
Al      -4.446786902  12.828257799   0.000000000
Al       4.446849801   2.673112268   0.000000000
Al       6.680355507   1.284259705   0.000000000
Al       2.314897401   6.366315345   0.000000000
Al       0.028129199  10.261769771   0.000000000
Al       2.228631759   8.994383863   0.000000000
Al      -2.216572799  14.149112575   0.000000000
Al      -0.013775241  12.829345876   0.000000000
Al       8.889140427   2.569973616   0.000000000
Al      11.122896088   1.281039960   0.000000000
Al       6.578833651   6.366333505   0.000000000
Al       8.898702969   5.126416002   0.000000000
Al       4.446881250  10.264359848   0.000000000
Al       6.665164530   8.994402023   0.000000000
Al       2.218395261  14.117718897   0.000000000
Al       4.446913870  12.844256187   0.000000000
Al      13.340550572   2.573447978   0.000000000
Al      15.558238845   1.281058120   0.000000000
Al      11.095765618   6.398752875   0.000000000
Al      13.340583192   5.150668424   0.000000000
Al       8.865633302  10.261806091   0.000000000
Al      11.125185484   8.990609724   0.000000000
Al       6.675398689  14.117737057   0.000000000
Al       8.907602980  12.829382196   0.000000000



     Writing output data file 12al_planar_2x2_vcr.save/
     NEW-OLD atomic charge density approx. for the potential

     negative rho (up, down):  8.567E-05 0.000E+00
     extrapolated charge   92.85504, renormalised to   93.00000

     total cpu time spent up to now is     1788.5 secs

     Self-consistent Calculation

     iteration #  1     ecut=    80.00 Ry     beta= 0.40
     Davidson diagonalization with overlap
     ethr =  1.00E-06,  avg # of iterations =  8.0

     negative rho (up, down):  8.626E-05 0.000E+00

     total cpu time spent up to now is     1835.5 secs

     total energy              =    -140.94621027 Ry
     Harris-Foulkes estimate   =    -141.66563252 Ry
     estimated scf accuracy    <       0.00076123 Ry

     iteration #  2     ecut=    80.00 Ry     beta= 0.40
     Davidson diagonalization with overlap
     ethr =  8.19E-07,  avg # of iterations =  5.0

     negative rho (up, down):  8.608E-05 0.000E+00

     total cpu time spent up to now is     1867.7 secs

     total energy              =    -140.94624262 Ry
     Harris-Foulkes estimate   =    -140.94723133 Ry
     estimated scf accuracy    <       0.00734753 Ry

     iteration #  3     ecut=    80.00 Ry     beta= 0.40
     Davidson diagonalization with overlap
     c_bands:  1 eigenvalues not converged
     ethr =  8.19E-07,  avg # of iterations = 20.0

     negative rho (up, down):  8.591E-05 0.000E+00

     total cpu time spent up to now is     1906.8 secs

     total energy              =    -140.94655925 Ry
     Harris-Foulkes estimate   =    -140.94661702 Ry
     estimated scf accuracy    <       0.00027200 Ry

     iteration #  4     ecut=    80.00 Ry     beta= 0.40
     Davidson diagonalization with overlap
     ethr =  2.92E-07,  avg # of iterations =  3.0

     negative rho (up, down):  8.571E-05 0.000E+00

     total cpu time spent up to now is     1931.0 secs

     total energy              =    -140.94655378 Ry
     Harris-Foulkes estimate   =    -140.94658030 Ry
     estimated scf accuracy    <       0.00014224 Ry

     iteration #  5     ecut=    80.00 Ry     beta= 0.40
     Davidson diagonalization with overlap
     ethr =  1.53E-07,  avg # of iterations =  3.0

     negative rho (up, down):  8.551E-05 0.000E+00

     total cpu time spent up to now is     1954.4 secs

     total energy              =    -140.94653311 Ry
     Harris-Foulkes estimate   =    -140.94659208 Ry
     estimated scf accuracy    <       0.00036737 Ry

     iteration #  6     ecut=    80.00 Ry     beta= 0.40
     Davidson diagonalization with overlap
     ethr =  1.53E-07,  avg # of iterations =  3.0

     negative rho (up, down):  8.534E-05 0.000E+00

     total cpu time spent up to now is     1979.5 secs

     total energy              =    -140.94656210 Ry
     Harris-Foulkes estimate   =    -140.94656920 Ry
     estimated scf accuracy    <       0.00004332 Ry

     iteration #  7     ecut=    80.00 Ry     beta= 0.40
     Davidson diagonalization with overlap
     ethr =  4.66E-08,  avg # of iterations =  3.0

     negative rho (up, down):  8.532E-05 0.000E+00

     total cpu time spent up to now is     2007.4 secs

     total energy              =    -140.94656559 Ry
     Harris-Foulkes estimate   =    -140.94656825 Ry
     estimated scf accuracy    <       0.00001392 Ry

     iteration #  8     ecut=    80.00 Ry     beta= 0.40
     Davidson diagonalization with overlap
     ethr =  1.50E-08,  avg # of iterations =  4.0

     negative rho (up, down):  8.533E-05 0.000E+00

     total cpu time spent up to now is     2033.4 secs

     total energy              =    -140.94656700 Ry
     Harris-Foulkes estimate   =    -140.94656876 Ry
     estimated scf accuracy    <       0.00001032 Ry

     iteration #  9     ecut=    80.00 Ry     beta= 0.40
     Davidson diagonalization with overlap
     ethr =  1.11E-08,  avg # of iterations =  3.0

     negative rho (up, down):  8.532E-05 0.000E+00

     total cpu time spent up to now is     2057.7 secs

     total energy              =    -140.94656780 Ry
     Harris-Foulkes estimate   =    -140.94656795 Ry
     estimated scf accuracy    <       0.00000126 Ry

     iteration # 10     ecut=    80.00 Ry     beta= 0.40
     Davidson diagonalization with overlap
     ethr =  1.36E-09,  avg # of iterations =  5.0

     negative rho (up, down):  8.532E-05 0.000E+00

     total cpu time spent up to now is     2089.5 secs

     total energy              =    -140.94656769 Ry
     Harris-Foulkes estimate   =    -140.94656801 Ry
     estimated scf accuracy    <       0.00000214 Ry

     iteration # 11     ecut=    80.00 Ry     beta= 0.40
     Davidson diagonalization with overlap
     ethr =  1.36E-09,  avg # of iterations =  3.0

     negative rho (up, down):  8.531E-05 0.000E+00

     total cpu time spent up to now is     2111.2 secs

     End of self-consistent calculation

          k = 0.0000 0.0000 0.0000 (448403 PWs)   bands (ev):

    -9.9602  -9.4538  -9.4515  -9.4510  -9.4121  -9.4117  -9.1304  -8.4073
    -8.4036  -8.4034  -8.3587  -8.3583  -8.3191  -8.2198  -8.2196  -7.5777
    -6.9346  -6.9341  -6.8266  -6.4774  -6.4774  -6.4451  -6.3859  -6.3858
    -5.5296  -4.8190  -4.8066  -4.8061  -4.7363  -4.7362  -4.4639  -4.4575
    -4.4473  -4.4472  -4.1565  -4.1561  -3.9807  -3.4726  -3.4722  -3.4720
    -3.4510  -3.4506  -3.3784  -3.3410  -3.2601  -3.2600  -3.2134  -2.9665
    -2.9431  -2.9428  -2.9172  -2.4920  -2.4914  -2.4507  -2.4415  -2.4414

     the Fermi energy is    -3.0892 ev

!    total energy              =    -140.94656699 Ry
     Harris-Foulkes estimate   =    -140.94656774 Ry
     estimated scf accuracy    <       0.00000089 Ry

     The total energy is the sum of the following terms:

     one-electron contribution =    -503.27270335 Ry
     hartree contribution      =     260.37110235 Ry
     xc contribution           =     -61.31667118 Ry
     ewald contribution        =     163.34808893 Ry
     smearing contrib. (-TS)   =      -0.07638374 Ry

     convergence has been achieved in  11 iterations

     negative rho (up, down):  8.531E-05 0.000E+00

     Forces acting on atoms (cartesian axes, Ry/au):

     atom    1 type  1   force =    -0.00191836   -0.00098199    0.00000000
     atom    2 type  1   force =     0.00783182    0.00557824    0.00000000
     atom    3 type  1   force =    -0.00090467    0.00229754    0.00000000
     atom    4 type  1   force =     0.00896138    0.00379465    0.00000000
     atom    5 type  1   force =     0.00000000    0.00004493    0.00000000
     atom    6 type  1   force =     0.00229927   -0.00125828    0.00000000
     atom    7 type  1   force =     0.00160192   -0.00166565    0.00000000
     atom    8 type  1   force =     0.00000000    0.00251828    0.00000000
     atom    9 type  1   force =     0.00000000    0.01493747    0.00000000
     atom   10 type  1   force =    -0.00783182    0.00557824    0.00000000
     atom   11 type  1   force =     0.01289958   -0.00757832    0.00000000
     atom   12 type  1   force =    -0.00241655   -0.00052240    0.00000000
     atom   13 type  1   force =     0.00104436   -0.00951588    0.00000000
     atom   14 type  1   force =    -0.00160192   -0.00166565    0.00000000
     atom   15 type  1   force =    -0.00217968   -0.00128575    0.00000000
     atom   16 type  1   force =     0.00191836   -0.00098199    0.00000000
     atom   17 type  1   force =    -0.00080179    0.00026293    0.00000000
     atom   18 type  1   force =    -0.01289958   -0.00757832    0.00000000
     atom   19 type  1   force =    -0.00896138    0.00379465    0.00000000
     atom   20 type  1   force =     0.00000000    0.00233376    0.00000000
     atom   21 type  1   force =    -0.00104436   -0.00951588    0.00000000
     atom   22 type  1   force =    -0.00189086   -0.00085292    0.00000000
     atom   23 type  1   force =    -0.00000000   -0.00113542    0.00000000
     atom   24 type  1   force =     0.00000000    0.00211488    0.00000000
     atom   25 type  1   force =     0.00080179    0.00026293    0.00000000
     atom   26 type  1   force =     0.00090467    0.00229754    0.00000000
     atom   27 type  1   force =     0.00000000    0.00264179    0.00000000
     atom   28 type  1   force =     0.00241655   -0.00052240    0.00000000
     atom   29 type  1   force =    -0.00229927   -0.00125828    0.00000000
     atom   30 type  1   force =     0.00189086   -0.00085292    0.00000000
     atom   31 type  1   force =     0.00217968   -0.00128575    0.00000000

     Total force =     0.036522     Total SCF correction =     0.000785


     Computing stress (Cartesian axis) and pressure


     negative rho (up, down):  8.531E-05 0.000E+00
          total   stress  (Ry/bohr**3)                   (kbar)     P=   -0.70
  -0.00000712  -0.00000000   0.00000000         -1.05     -0.00      0.00
   0.00000000  -0.00000724   0.00000000          0.00     -1.07      0.00
  -0.00000000  -0.00000000   0.00000001         -0.00     -0.00      0.00


     number of scf cycles    =   6
     number of bfgs steps    =   5

     enthalpy old            =    -140.9429648992 Ry
     enthalpy new            =    -140.9465669891 Ry

     CASE: enthalpy_new < enthalpy_old

     new trust radius        =       0.1149216059 bohr
     new conv_thr            =       0.0000010000 Ry

     new unit-cell volume =  36895.08606 a.u.^3 (  5467.28761 Ang^3 )
     density =      0.28229 g/cm^3

CELL_PARAMETERS (alat= 33.68096681)
   0.996807953  -0.000000000   0.000000000
  -0.498403977   0.863294690   0.000000000
   0.000000000   0.000000000   1.122132950

ATOMIC_POSITIONS (angstrom)
Al       0.006018591   2.567756208   0.000000000
Al       2.209037733   1.285349649   0.000000000
Al      -2.188910905   6.381837137   0.000000000
Al      -0.003591801   5.117664549   0.000000000
Al      -4.441566781  10.257987158   0.000000000
Al      -2.231932881   8.981804309   0.000000000
Al      -6.672034972  14.146217078   0.000000000
Al      -4.441534200  12.809548887   0.000000000
Al       4.441597025   2.730724174   0.000000000
Al       6.674190067   1.285367788   0.000000000
Al       2.364736838   6.328624267   0.000000000
Al       0.041506624  10.245419552   0.000000000
Al       2.229058143   8.983943513   0.000000000
Al      -2.211067177  14.146235217   0.000000000
Al      -0.021897504  12.809569176   0.000000000
Al       8.877175459   2.567792485   0.000000000
Al      11.112350950   1.278203004   0.000000000
Al       6.518488625   6.328642406   0.000000000
Al       8.886851012   5.117700826   0.000000000
Al       4.441628438  10.250564274   0.000000000
Al       6.654232481   8.983961651   0.000000000
Al       2.212436263  14.099156024   0.000000000
Al       4.441661018  12.832198743   0.000000000
Al      13.324792244   2.574281463   0.000000000
Al      15.537267287   1.278221142   0.000000000
Al      11.072136368   6.381891553   0.000000000
Al      13.324824825   5.153965492   0.000000000
Al       8.841750252  10.245455829   0.000000000
Al      11.115223506   8.981858725   0.000000000
Al       6.670852024  14.099174162   0.000000000
Al       8.905219540  12.809605453   0.000000000



     Writing output data file 12al_planar_2x2_vcr.save/
     NEW-OLD atomic charge density approx. for the potential

     negative rho (up, down):  8.547E-05 0.000E+00
     extrapolated charge   92.78102, renormalised to   93.00000

     total cpu time spent up to now is     2192.9 secs

     Self-consistent Calculation

     iteration #  1     ecut=    80.00 Ry     beta= 0.40
     Davidson diagonalization with overlap
     ethr =  1.00E-06,  avg # of iterations =  9.0

     negative rho (up, down):  8.645E-05 0.000E+00

     total cpu time spent up to now is     2243.2 secs

     total energy              =    -140.95072746 Ry
     Harris-Foulkes estimate   =    -142.03952262 Ry
     estimated scf accuracy    <       0.00179724 Ry

     iteration #  2     ecut=    80.00 Ry     beta= 0.40
     Davidson diagonalization with overlap
     ethr =  1.93E-06,  avg # of iterations =  6.0

     negative rho (up, down):  8.619E-05 0.000E+00

     total cpu time spent up to now is     2278.7 secs

     total energy              =    -140.95071438 Ry
     Harris-Foulkes estimate   =    -140.95343492 Ry
     estimated scf accuracy    <       0.02030962 Ry

     iteration #  3     ecut=    80.00 Ry     beta= 0.40
     Davidson diagonalization with overlap
     ethr =  1.93E-06,  avg # of iterations =  4.0

     negative rho (up, down):  8.596E-05 0.000E+00

     total cpu time spent up to now is     2309.7 secs

     total energy              =    -140.95191628 Ry
     Harris-Foulkes estimate   =    -140.95204335 Ry
     estimated scf accuracy    <       0.00057055 Ry

     iteration #  4     ecut=    80.00 Ry     beta= 0.40
     Davidson diagonalization with overlap
     ethr =  6.13E-07,  avg # of iterations =  3.0

     negative rho (up, down):  8.566E-05 0.000E+00

     total cpu time spent up to now is     2332.0 secs

     total energy              =    -140.95192016 Ry
     Harris-Foulkes estimate   =    -140.95197619 Ry
     estimated scf accuracy    <       0.00031149 Ry

     iteration #  5     ecut=    80.00 Ry     beta= 0.40
     Davidson diagonalization with overlap
     ethr =  3.35E-07,  avg # of iterations =  4.0

     negative rho (up, down):  8.536E-05 0.000E+00

     total cpu time spent up to now is     2355.5 secs

     total energy              =    -140.95188992 Ry
     Harris-Foulkes estimate   =    -140.95198327 Ry
     estimated scf accuracy    <       0.00053332 Ry

     iteration #  6     ecut=    80.00 Ry     beta= 0.40
     Davidson diagonalization with overlap
     ethr =  3.35E-07,  avg # of iterations =  4.0

     negative rho (up, down):  8.495E-05 0.000E+00

     total cpu time spent up to now is     2381.0 secs

     total energy              =    -140.95193329 Ry
     Harris-Foulkes estimate   =    -140.95195243 Ry
     estimated scf accuracy    <       0.00011296 Ry

     iteration #  7     ecut=    80.00 Ry     beta= 0.40
     Davidson diagonalization with overlap
     ethr =  1.21E-07,  avg # of iterations =  3.0

     negative rho (up, down):  8.492E-05 0.000E+00

     total cpu time spent up to now is     2403.4 secs

     total energy              =    -140.95194468 Ry
     Harris-Foulkes estimate   =    -140.95194936 Ry
     estimated scf accuracy    <       0.00002650 Ry

     iteration #  8     ecut=    80.00 Ry     beta= 0.40
     Davidson diagonalization with overlap
     ethr =  2.85E-08,  avg # of iterations =  4.0

     negative rho (up, down):  8.492E-05 0.000E+00

     total cpu time spent up to now is     2430.2 secs

     total energy              =    -140.95194828 Ry
     Harris-Foulkes estimate   =    -140.95195059 Ry
     estimated scf accuracy    <       0.00001161 Ry

     iteration #  9     ecut=    80.00 Ry     beta= 0.40
     Davidson diagonalization with overlap
     ethr =  1.25E-08,  avg # of iterations =  4.0

     negative rho (up, down):  8.490E-05 0.000E+00

     total cpu time spent up to now is     2455.8 secs

     total energy              =    -140.95194855 Ry
     Harris-Foulkes estimate   =    -140.95194953 Ry
     estimated scf accuracy    <       0.00000434 Ry

     iteration # 10     ecut=    80.00 Ry     beta= 0.40
     Davidson diagonalization with overlap
     ethr =  4.66E-09,  avg # of iterations =  4.0

     negative rho (up, down):  8.489E-05 0.000E+00

     total cpu time spent up to now is     2481.3 secs

     total energy              =    -140.95194856 Ry
     Harris-Foulkes estimate   =    -140.95194975 Ry
     estimated scf accuracy    <       0.00000958 Ry

     iteration # 11     ecut=    80.00 Ry     beta= 0.40
     Davidson diagonalization with overlap
     ethr =  4.66E-09,  avg # of iterations =  3.0

     negative rho (up, down):  8.488E-05 0.000E+00

     total cpu time spent up to now is     2505.0 secs

     total energy              =    -140.95194870 Ry
     Harris-Foulkes estimate   =    -140.95194904 Ry
     estimated scf accuracy    <       0.00000121 Ry

     iteration # 12     ecut=    80.00 Ry     beta= 0.40
     Davidson diagonalization with overlap
     ethr =  1.30E-09,  avg # of iterations =  5.0

     negative rho (up, down):  8.488E-05 0.000E+00

     total cpu time spent up to now is     2535.5 secs

     End of self-consistent calculation

          k = 0.0000 0.0000 0.0000 (448403 PWs)   bands (ev):

    -9.9647  -9.4615  -9.4611  -9.4569  -9.4056  -9.4050  -9.1262  -8.4190
    -8.4034  -8.4031  -8.3514  -8.3511  -8.3262  -8.1937  -8.1934  -7.5796
    -6.9369  -6.9363  -6.8299  -6.4762  -6.4759  -6.4253  -6.3901  -6.3901
    -5.5679  -4.8089  -4.7921  -4.7917  -4.7299  -4.7298  -4.4570  -4.4513
    -4.4490  -4.4490  -4.1761  -4.1757  -3.9824  -3.4777  -3.4774  -3.4723
    -3.4441  -3.4437  -3.4230  -3.3638  -3.2520  -3.2519  -3.2122  -2.9755
    -2.9305  -2.9302  -2.8858  -2.4781  -2.4771  -2.4581  -2.4391  -2.4389

     the Fermi energy is    -3.0875 ev

!    total energy              =    -140.95194853 Ry
     Harris-Foulkes estimate   =    -140.95194894 Ry
     estimated scf accuracy    <       0.00000052 Ry

     The total energy is the sum of the following terms:

     one-electron contribution =    -504.03287597 Ry
     hartree contribution      =     260.74492882 Ry
     xc contribution           =     -61.30921240 Ry
     ewald contribution        =     163.71768521 Ry
     smearing contrib. (-TS)   =      -0.07247420 Ry

     convergence has been achieved in  12 iterations

     negative rho (up, down):  8.488E-05 0.000E+00

     Forces acting on atoms (cartesian axes, Ry/au):

     atom    1 type  1   force =    -0.00286220   -0.00148642    0.00000000
     atom    2 type  1   force =     0.01251364    0.00889636    0.00000000
     atom    3 type  1   force =    -0.00290889    0.00510973    0.00000000
     atom    4 type  1   force =     0.01424705    0.00612328    0.00000000
     atom    5 type  1   force =     0.00000000    0.00001343    0.00000000
     atom    6 type  1   force =     0.00416915   -0.00233074    0.00000000
     atom    7 type  1   force =     0.00305402   -0.00475734    0.00000000
     atom    8 type  1   force =     0.00000000    0.00472217    0.00000000
     atom    9 type  1   force =     0.00000000    0.01543233    0.00000000
     atom   10 type  1   force =    -0.01251364    0.00889636    0.00000000
     atom   11 type  1   force =     0.01331473   -0.00784269    0.00000000
     atom   12 type  1   force =    -0.00584264   -0.00023258    0.00000000
     atom   13 type  1   force =     0.00160373   -0.01524204    0.00000000
     atom   14 type  1   force =    -0.00305402   -0.00475734    0.00000000
     atom   15 type  1   force =    -0.00194204   -0.00111747    0.00000000
     atom   16 type  1   force =     0.00286220   -0.00148642    0.00000000
     atom   17 type  1   force =    -0.00151743    0.00057915    0.00000000
     atom   18 type  1   force =    -0.01331473   -0.00784269    0.00000000
     atom   19 type  1   force =    -0.01424705    0.00612328    0.00000000
     atom   20 type  1   force =     0.00000000    0.00344704    0.00000000
     atom   21 type  1   force =    -0.00160373   -0.01524204    0.00000000
     atom   22 type  1   force =    -0.00270951   -0.00127142    0.00000000
     atom   23 type  1   force =    -0.00000000   -0.00193279    0.00000000
     atom   24 type  1   force =     0.00000000    0.00307606    0.00000000
     atom   25 type  1   force =     0.00151743    0.00057915    0.00000000
     atom   26 type  1   force =     0.00290889    0.00510973    0.00000000
     atom   27 type  1   force =     0.00000000    0.00238611    0.00000000
     atom   28 type  1   force =     0.00584264   -0.00023258    0.00000000
     atom   29 type  1   force =    -0.00416915   -0.00233074    0.00000000
     atom   30 type  1   force =     0.00270951   -0.00127142    0.00000000
     atom   31 type  1   force =     0.00194204   -0.00111747    0.00000000

     Total force =     0.049921     Total SCF correction =     0.000534


     Computing stress (Cartesian axis) and pressure


     negative rho (up, down):  8.488E-05 0.000E+00
          total   stress  (Ry/bohr**3)                   (kbar)     P=   -0.77
  -0.00000779   0.00000000   0.00000000         -1.15      0.00      0.00
   0.00000000  -0.00000793   0.00000000          0.00     -1.17      0.00
   0.00000000   0.00000000   0.00000002          0.00      0.00      0.00


     number of scf cycles    =   7
     number of bfgs steps    =   6

     enthalpy old            =    -140.9465669891 Ry
     enthalpy new            =    -140.9519485347 Ry

     CASE: enthalpy_new < enthalpy_old

     new trust radius        =       0.1721805136 bohr
     new conv_thr            =       0.0000010000 Ry

     new unit-cell volume =  36764.63760 a.u.^3 (  5447.95714 Ang^3 )
[...]
     convergence threshold     =      1.0E-08
     mixing beta               =       0.4000
     number of iterations used =            8  plain     mixing
     Exchange-correlation      = PBE ( 1  4  3  4 0 0)

     celldm(1)=  33.680967  celldm(2)=   0.000000  celldm(3)=   1.122133
     celldm(4)=   0.000000  celldm(5)=   0.000000  celldm(6)=   0.000000

     crystal axes: (cart. coord. in units of alat)
               a(1) = (   0.853463  -0.000000   0.000000 )  
               a(2) = (  -0.426731   0.739570   0.000000 )  
               a(3) = (   0.000000   0.000000   1.122133 )  

     reciprocal axes: (cart. coord. in units 2 pi/alat)
               b(1) = (  1.171697  0.676068  0.000000 )  
               b(2) = (  0.000000  1.352137  0.000000 )  
               b(3) = (  0.000000  0.000000  0.891160 )  


     PseudoPot. # 1 for Al read from file:
     ./Al.upf
     MD5 check sum: 4974d48a734c9d7d1eb6780a1419d19d
     Pseudo is Norm-conserving + core correction, Zval =  3.0
     Generated using ONCVPSP code by D. R. Hamann
     Using radial grid of 1876 points,  6 beta functions with: 
                l(1) =   0
                l(2) =   0
                l(3) =   1
                l(4) =   1
                l(5) =   2
                l(6) =   2

     atomic species   valence    mass     pseudopotential
        Al             3.00    29.98200     Al( 1.00)

      4 Sym. Ops. (no inversion) found ( 2 have fractional translation)



   Cartesian axes

     site n.     atom                  positions (alat units)
         1           Al  tau(   1) = (  -0.0635287   0.0863367   0.0000000  )
         2           Al  tau(   2) = (   0.0635317   0.1601942   0.0000000  )
         3           Al  tau(   3) = (  -0.1379639   0.2161615   0.0000000  )
         4           Al  tau(   4) = (  -0.0115649   0.2893873   0.0000000  )
         5           Al  tau(   5) = (  -0.2133652   0.4930507   0.0000000  )
         6           Al  tau(   6) = (  -0.0853983   0.4190870   0.0000000  )
         7           Al  tau(   7) = (  -0.2887644   0.7699390   0.0000000  )
         8           Al  tau(   8) = (  -0.2133637   0.6409872   0.0000000  )
         9           Al  tau(   9) = (   0.2133667   0.1601959   0.0000000  )
        10           Al  tau(  10) = (   0.3632033   0.1601951   0.0000000  )
        11           Al  tau(  11) = (   0.1385394   0.2898300   0.0000000  )
        12           Al  tau(  12) = (   0.0638121   0.5661140   0.0000000  )
        13           Al  tau(  13) = (   0.0638134   0.4199875   0.0000000  )
        14           Al  tau(  14) = (  -0.1379646   0.7699398   0.0000000  )
        15           Al  tau(  15) = (  -0.0853979   0.5670126   0.0000000  )
        16           Al  tau(  16) = (   0.4902621   0.0863385   0.0000000  )
        17           Al  tau(  17) = (   0.5652724  -0.0432982   0.0000000  )
        18           Al  tau(  18) = (   0.2881955   0.2898309   0.0000000  )
        19           Al  tau(  19) = (   0.4383014   0.2893891   0.0000000  )
        20           Al  tau(  20) = (   0.2133682   0.4195333   0.0000000  )
        21           Al  tau(  21) = (   0.3629246   0.4199883   0.0000000  )
        22           Al  tau(  22) = (  -0.0115647   0.6967136   0.0000000  )
        23           Al  tau(  23) = (   0.2133698   0.5665689   0.0000000  )
        24           Al  tau(  24) = (   0.6401001   0.0863361   0.0000000  )
        25           Al  tau(  25) = (   0.7149295  -0.0432973   0.0000000  )
        26           Al  tau(  26) = (   0.5646988   0.2161641   0.0000000  )
        27           Al  tau(  27) = (   0.6401017   0.3451146   0.0000000  )
        28           Al  tau(  28) = (   0.3629243   0.5661158   0.0000000  )
        29           Al  tau(  29) = (   0.5121363   0.4190896   0.0000000  )
        30           Al  tau(  30) = (   0.4383026   0.6967145   0.0000000  )
        31           Al  tau(  31) = (   0.5121374   0.5670144   0.0000000  )

     number of k points=     1  Methfessel-Paxton smearing, width (Ry)=  0.0500
                       cart. coord. in units 2pi/alat
        k(    1) = (   0.0000000   0.0000000   0.0000000), wk =   2.0000000

     Dense  grid:  2615863 G-vectors     FFT dimensions: ( 180, 180, 216)

     Estimated max dynamical RAM per process >     879.95 MB

     Estimated total dynamical RAM >       6.87 GB

     Initial potential from superposition of free atoms

     starting charge   92.92414, renormalised to   93.00000

     negative rho (up, down):  7.365E-05 0.000E+00
     Starting wfcs are  124 randomized atomic wfcs

     total cpu time spent up to now is    89649.4 secs

     Self-consistent Calculation

     iteration #  1     ecut=    80.00 Ry     beta= 0.40
     Davidson diagonalization with overlap
     ethr =  1.00E-06,  avg # of iterations = 20.0

     negative rho (up, down):  1.786E-05 0.000E+00

     total cpu time spent up to now is    89717.8 secs

     total energy              =    -142.02314263 Ry
     Harris-Foulkes estimate   =    -142.39356626 Ry
     estimated scf accuracy    <       1.01390365 Ry

     iteration #  2     ecut=    80.00 Ry     beta= 0.40
     Davidson diagonalization with overlap
     ethr =  1.09E-03,  avg # of iterations =  2.0

     negative rho (up, down):  2.099E-05 0.000E+00

     total cpu time spent up to now is    89735.8 secs

     total energy              =    -142.06164071 Ry
     Harris-Foulkes estimate   =    -142.11614624 Ry
     estimated scf accuracy    <       0.14617731 Ry

     iteration #  3     ecut=    80.00 Ry     beta= 0.40
     Davidson diagonalization with overlap
     ethr =  1.57E-04,  avg # of iterations =  3.0

     negative rho (up, down):  2.271E-05 0.000E+00

     total cpu time spent up to now is    89756.4 secs

     total energy              =    -142.06850066 Ry
     Harris-Foulkes estimate   =    -142.08882123 Ry
     estimated scf accuracy    <       0.05826429 Ry

     iteration #  4     ecut=    80.00 Ry     beta= 0.40
     Davidson diagonalization with overlap
     ethr =  6.26E-05,  avg # of iterations =  5.0

     negative rho (up, down):  2.334E-05 0.000E+00

     total cpu time spent up to now is    89779.8 secs

     total energy              =    -142.07445884 Ry
     Harris-Foulkes estimate   =    -142.08367440 Ry
     estimated scf accuracy    <       0.03641817 Ry

     iteration #  5     ecut=    80.00 Ry     beta= 0.40
     Davidson diagonalization with overlap
     ethr =  3.92E-05,  avg # of iterations =  4.0

     negative rho (up, down):  2.372E-05 0.000E+00

     total cpu time spent up to now is    89800.8 secs

     total energy              =    -142.07918628 Ry
     Harris-Foulkes estimate   =    -142.08026080 Ry
     estimated scf accuracy    <       0.00415466 Ry

     iteration #  6     ecut=    80.00 Ry     beta= 0.40
     Davidson diagonalization with overlap
     ethr =  4.47E-06,  avg # of iterations =  4.0

     negative rho (up, down):  2.363E-05 0.000E+00

     total cpu time spent up to now is    89823.5 secs

     total energy              =    -142.07991720 Ry
     Harris-Foulkes estimate   =    -142.08005348 Ry
     estimated scf accuracy    <       0.00053604 Ry

     iteration #  7     ecut=    80.00 Ry     beta= 0.40
     Davidson diagonalization with overlap
     ethr =  5.76E-07,  avg # of iterations =  4.0

     negative rho (up, down):  2.359E-05 0.000E+00

     total cpu time spent up to now is    89845.3 secs

     total energy              =    -142.07997534 Ry
     Harris-Foulkes estimate   =    -142.07999927 Ry
     estimated scf accuracy    <       0.00007159 Ry

     iteration #  8     ecut=    80.00 Ry     beta= 0.40
     Davidson diagonalization with overlap
     ethr =  7.70E-08,  avg # of iterations = 18.0

     negative rho (up, down):  2.362E-05 0.000E+00

     total cpu time spent up to now is    89881.1 secs

     total energy              =    -142.07897274 Ry
     Harris-Foulkes estimate   =    -142.07901525 Ry
     estimated scf accuracy    <       0.00024951 Ry

     iteration #  9     ecut=    80.00 Ry     beta= 0.40
     Davidson diagonalization with overlap
     ethr =  7.70E-08,  avg # of iterations =  4.0

     negative rho (up, down):  2.362E-05 0.000E+00

     total cpu time spent up to now is    89902.9 secs

     total energy              =    -142.07897529 Ry
     Harris-Foulkes estimate   =    -142.07898194 Ry
     estimated scf accuracy    <       0.00007256 Ry

     iteration # 10     ecut=    80.00 Ry     beta= 0.40
     Davidson diagonalization with overlap
     ethr =  7.70E-08,  avg # of iterations =  1.0

     negative rho (up, down):  2.351E-05 0.000E+00

     total cpu time spent up to now is    89920.9 secs

     total energy              =    -142.07895313 Ry
     Harris-Foulkes estimate   =    -142.07897586 Ry
     estimated scf accuracy    <       0.00005394 Ry

     iteration # 11     ecut=    80.00 Ry     beta= 0.40
     Davidson diagonalization with overlap
     ethr =  5.80E-08,  avg # of iterations =  4.0

     negative rho (up, down):  2.351E-05 0.000E+00

     total cpu time spent up to now is    89944.0 secs

     total energy              =    -142.07896073 Ry
     Harris-Foulkes estimate   =    -142.07896621 Ry
     estimated scf accuracy    <       0.00002385 Ry

     iteration # 12     ecut=    80.00 Ry     beta= 0.40
     Davidson diagonalization with overlap
     ethr =  2.56E-08,  avg # of iterations =  3.0

     negative rho (up, down):  2.350E-05 0.000E+00

     total cpu time spent up to now is    89964.0 secs

     total energy              =    -142.07896193 Ry
     Harris-Foulkes estimate   =    -142.07896335 Ry
     estimated scf accuracy    <       0.00000522 Ry

     iteration # 13     ecut=    80.00 Ry     beta= 0.40
     Davidson diagonalization with overlap
     ethr =  5.61E-09,  avg # of iterations =  5.0

     negative rho (up, down):  2.349E-05 0.000E+00

     total cpu time spent up to now is    89990.3 secs

     total energy              =    -142.07896267 Ry
     Harris-Foulkes estimate   =    -142.07896377 Ry
     estimated scf accuracy    <       0.00000389 Ry

     iteration # 14     ecut=    80.00 Ry     beta= 0.40
     Davidson diagonalization with overlap
     ethr =  4.18E-09,  avg # of iterations =  2.0

     negative rho (up, down):  2.348E-05 0.000E+00

     total cpu time spent up to now is    90009.4 secs

     total energy              =    -142.07896289 Ry
     Harris-Foulkes estimate   =    -142.07896298 Ry
     estimated scf accuracy    <       0.00000032 Ry

     iteration # 15     ecut=    80.00 Ry     beta= 0.40
     Davidson diagonalization with overlap
     ethr =  3.45E-10,  avg # of iterations =  6.0

     negative rho (up, down):  2.348E-05 0.000E+00

     total cpu time spent up to now is    90039.2 secs

     total energy              =    -142.07896279 Ry
     Harris-Foulkes estimate   =    -142.07896287 Ry
     estimated scf accuracy    <       0.00000042 Ry

     iteration # 16     ecut=    80.00 Ry     beta= 0.40
     Davidson diagonalization with overlap
     ethr =  3.45E-10,  avg # of iterations =  3.0

     negative rho (up, down):  2.348E-05 0.000E+00

     total cpu time spent up to now is    90059.7 secs

     total energy              =    -142.07896264 Ry
     Harris-Foulkes estimate   =    -142.07896266 Ry
     estimated scf accuracy    <       0.00000014 Ry

     iteration # 17     ecut=    80.00 Ry     beta= 0.40
     Davidson diagonalization with overlap
     ethr =  1.51E-10,  avg # of iterations =  1.0

     negative rho (up, down):  2.348E-05 0.000E+00

     total cpu time spent up to now is    90077.8 secs

     total energy              =    -142.07896259 Ry
     Harris-Foulkes estimate   =    -142.07896261 Ry
     estimated scf accuracy    <       0.00000008 Ry

     iteration # 18     ecut=    80.00 Ry     beta= 0.40
     Davidson diagonalization with overlap
     ethr =  8.10E-11,  avg # of iterations =  5.0

     negative rho (up, down):  2.348E-05 0.000E+00

     total cpu time spent up to now is    90101.9 secs

     total energy              =    -142.07896252 Ry
     Harris-Foulkes estimate   =    -142.07896252 Ry
     estimated scf accuracy    <       0.00000002 Ry

     iteration # 19     ecut=    80.00 Ry     beta= 0.40
     Davidson diagonalization with overlap
     ethr =  1.63E-11,  avg # of iterations =  3.0

     negative rho (up, down):  2.348E-05 0.000E+00

     total cpu time spent up to now is    90123.2 secs

     total energy              =    -142.07896247 Ry
     Harris-Foulkes estimate   =    -142.07896247 Ry
     estimated scf accuracy    <       0.00000002 Ry

     iteration # 20     ecut=    80.00 Ry     beta= 0.40
     Davidson diagonalization with overlap
     ethr =  1.63E-11,  avg # of iterations =  1.0

     negative rho (up, down):  2.347E-05 0.000E+00

     total cpu time spent up to now is    90142.2 secs

     total energy              =    -142.07896245 Ry
     Harris-Foulkes estimate   =    -142.07896245 Ry
     estimated scf accuracy    <       0.00000001 Ry

     iteration # 21     ecut=    80.00 Ry     beta= 0.40
     Davidson diagonalization with overlap
     ethr =  1.10E-11,  avg # of iterations =  1.0

     negative rho (up, down):  2.347E-05 0.000E+00

     total cpu time spent up to now is    90159.3 secs

     End of self-consistent calculation

          k = 0.0000 0.0000 0.0000 (326797 PWs)   bands (ev):

   -11.4056 -10.8027 -10.7274 -10.4912 -10.4884 -10.4183 -10.4171  -9.0131
    -9.0130  -8.9802  -8.8657  -8.8627  -8.4488  -8.3006  -8.0985  -8.0949
    -7.9199  -7.9189  -7.8245  -5.9730  -5.9722  -5.7649  -5.7177  -5.7033
    -5.6587  -5.6581  -5.5981  -5.5952  -5.3198  -5.3155  -5.2907  -4.7497
    -4.3890  -4.3849  -4.0945  -4.0396  -3.9231  -3.8970  -3.8953  -3.8414
    -3.8409  -3.7025  -3.5708  -3.5690  -2.3931  -2.3925  -2.3645  -2.3142
    -2.3116  -2.2736  -2.1877  -2.0372  -1.8230  -1.8213  -1.6913  -1.5511

     the Fermi energy is    -2.4471 ev

!    total energy              =    -142.07896244 Ry
     Harris-Foulkes estimate   =    -142.07896244 Ry
     estimated scf accuracy    <          4.9E-09 Ry

     The total energy is the sum of the following terms:

     one-electron contribution =    -677.71925556 Ry
     hartree contribution      =     347.82165392 Ry
     xc contribution           =     -63.48544847 Ry
     ewald contribution        =     251.35386269 Ry
     smearing contrib. (-TS)   =      -0.04977501 Ry

     convergence has been achieved in  21 iterations

     negative rho (up, down):  2.347E-05 0.000E+00

     Forces acting on atoms (cartesian axes, Ry/au):

     atom    1 type  1   force =    -0.00009698    0.00008245    0.00000000
     atom    2 type  1   force =     0.00009821   -0.00008584    0.00000000
     atom    3 type  1   force =    -0.00000174   -0.00005877    0.00000000
     atom    4 type  1   force =    -0.00001452    0.00007661    0.00000000
     atom    5 type  1   force =    -0.00000000   -0.00000123    0.00000000
     atom    6 type  1   force =     0.00000464    0.00008199    0.00000000
     atom    7 type  1   force =    -0.00000166    0.00005739    0.00000000
     atom    8 type  1   force =     0.00000000    0.00008758    0.00000000
     atom    9 type  1   force =    -0.00000000   -0.00001900    0.00000000
     atom   10 type  1   force =    -0.00009821   -0.00008584    0.00000000
     atom   11 type  1   force =    -0.00001499   -0.00003547    0.00000000
     atom   12 type  1   force =     0.00001452   -0.00004888    0.00000000
     atom   13 type  1   force =     0.00001538    0.00004710    0.00000000
     atom   14 type  1   force =     0.00000166    0.00005739    0.00000000
     atom   15 type  1   force =     0.00000793   -0.00008367    0.00000000
     atom   16 type  1   force =     0.00009698    0.00008245    0.00000000
     atom   17 type  1   force =    -0.00001470    0.00003770    0.00000000
     atom   18 type  1   force =     0.00001499   -0.00003547    0.00000000
     atom   19 type  1   force =     0.00001452    0.00007661    0.00000000
     atom   20 type  1   force =     0.00000000    0.00009095    0.00000000
     atom   21 type  1   force =    -0.00001538    0.00004710    0.00000000
     atom   22 type  1   force =    -0.00001413   -0.00007242    0.00000000
     atom   23 type  1   force =    -0.00000000   -0.00009153    0.00000000
     atom   24 type  1   force =     0.00000000    0.00002108    0.00000000
     atom   25 type  1   force =     0.00001470    0.00003770    0.00000000
     atom   26 type  1   force =     0.00000174   -0.00005877    0.00000000
     atom   27 type  1   force =    -0.00000000   -0.00008423    0.00000000
     atom   28 type  1   force =    -0.00001452   -0.00004888    0.00000000
     atom   29 type  1   force =    -0.00000464    0.00008199    0.00000000
     atom   30 type  1   force =     0.00001413   -0.00007242    0.00000000
     atom   31 type  1   force =    -0.00000793   -0.00008367    0.00000000

     Total force =     0.000423     Total SCF correction =     0.000070
     SCF correction compared to forces is large: reduce conv_thr to get better values


     Computing stress (Cartesian axis) and pressure


     negative rho (up, down):  2.347E-05 0.000E+00
          total   stress  (Ry/bohr**3)                   (kbar)     P=    0.00
   0.00000014  -0.00000000  -0.00000000          0.02     -0.00     -0.00
  -0.00000000  -0.00000007  -0.00000000         -0.00     -0.01     -0.00
   0.00000000   0.00000000  -0.00000001          0.00      0.00     -0.00


     Writing output data file 12al_planar_2x2_vcr.save/
 
     init_run     :     44.67s CPU     51.36s WALL (       2 calls)
     electrons    :  61693.27s CPU  71963.47s WALL (     236 calls)
     update_pot   :   3677.54s CPU   3736.35s WALL (     234 calls)
     forces       :   3306.71s CPU   3424.37s WALL (     236 calls)
     stress       :  10530.61s CPU  10808.76s WALL (     236 calls)

     Called by init_run:
     wfcinit      :     24.32s CPU     30.16s WALL (       2 calls)
     potinit      :      7.85s CPU      8.34s WALL (       2 calls)
     hinit0       :      8.70s CPU      8.89s WALL (       2 calls)

     Called by electrons:
     c_bands      :  51149.05s CPU  59335.15s WALL (    2232 calls)
     sum_band     :   7496.91s CPU   8924.19s WALL (    2232 calls)
     v_of_rho     :   2615.46s CPU   3060.24s WALL (    2404 calls)
     mix_rho      :    516.99s CPU    700.87s WALL (    2232 calls)

     Called by c_bands:
     init_us_2    :    880.66s CPU    884.59s WALL (    4466 calls)
     cegterg      :  44713.93s CPU  52887.76s WALL (    2233 calls)

     Called by sum_band:

     Called by *egterg:
     h_psi        :  40031.78s CPU  47969.13s WALL (   14401 calls)
     g_psi        :    115.86s CPU    119.60s WALL (   12166 calls)
     cdiaghg      :    113.50s CPU    114.73s WALL (   14100 calls)

     Called by h_psi:
     h_psi:pot    :  39945.72s CPU  47749.27s WALL (   14401 calls)
     h_psi:calbec :   4262.43s CPU   4275.89s WALL (   14401 calls)
     vloc_psi     :  30952.95s CPU  38734.78s WALL (   14401 calls)
     add_vuspsi   :   4730.13s CPU   4738.47s WALL (   14401 calls)

     General routines
     calbec       :   4895.33s CPU   4910.39s WALL (   15581 calls)
     fft          :   2334.32s CPU   2684.09s WALL (   30238 calls)
     ffts         :    180.37s CPU    206.12s WALL (    2232 calls)
     fftw         :  33864.39s CPU  42772.24s WALL (  869770 calls)
 
     Parallel routines
     fft_scatt_xy :   4796.45s CPU   6686.26s WALL (  902240 calls)
     fft_scatt_yz :  18444.84s CPU  20319.07s WALL (  902240 calls)
 
     PWSCF        :    22h 2m CPU        1d    1h 3m WALL

 
   This run was terminated on:   0: 1:25  27Nov2020            

=------------------------------------------------------------------------------=
   JOB DONE.
=------------------------------------------------------------------------------=
