
     Program PWSCF v.6.3MaX starts on 26Nov2020 at  8: 2:41 

     This program is part of the open-source Quantum ESPRESSO suite
     for quantum simulation of materials; please cite
         "P. Giannozzi et al., J. Phys.:Condens. Matter 21 395502 (2009);
         "P. Giannozzi et al., J. Phys.:Condens. Matter 29 465901 (2017);
          URL http://www.quantum-espresso.org", 
     in publications or presentations arising from this work. More details at
     http://www.quantum-espresso.org/quote

     Parallel version (MPI), running on     8 processors

     MPI processes distributed on     2 nodes
     R & G space division:  proc/nbgrp/npool/nimage =       8
     Waiting for input...
     Reading input from standard input

     Current dimensions of program PWSCF are:
     Max number of different atomic species (ntypx) = 10
     Max number of k-points (npk) =  40000
     Max angular momentum in pseudopotentials (lmaxx) =  3

     Subspace diagonalization in iterative solution of the eigenvalue problem:
     a serial algorithm will be used

 
     Parallelization info
     --------------------
     sticks:   dense  smooth     PW     G-vecs:    dense   smooth      PW
     Min        3123    3123    778               448599   448599   56048
     Max        3124    3124    779               448604   448604   56052
     Sum       24985   24985   6229              3588803  3588803  448403
 


     bravais-lattice index     =            4
     lattice parameter (alat)  =      33.6810  a.u.
     unit-cell volume          =   37130.3117 (a.u.)^3
     number of atoms/cell      =           31
     number of atomic types    =            1
     number of electrons       =        93.00
     number of Kohn-Sham states=           56
     kinetic-energy cutoff     =      80.0000  Ry
     charge density cutoff     =     320.0000  Ry
     convergence threshold     =      1.0E-06
     mixing beta               =       0.4000
     number of iterations used =            8  plain     mixing
     Exchange-correlation      = PBE ( 1  4  3  4 0 0)
     nstep                     =          300


     celldm(1)=  33.680967  celldm(2)=   0.000000  celldm(3)=   1.122133
     celldm(4)=   0.000000  celldm(5)=   0.000000  celldm(6)=   0.000000

     crystal axes: (cart. coord. in units of alat)
               a(1) = (   1.000000   0.000000   0.000000 )  
               a(2) = (  -0.500000   0.866025   0.000000 )  
               a(3) = (   0.000000   0.000000   1.122133 )  

     reciprocal axes: (cart. coord. in units 2 pi/alat)
               b(1) = (  1.000000  0.577350  0.000000 )  
               b(2) = (  0.000000  1.154701  0.000000 )  
               b(3) = (  0.000000  0.000000  0.891160 )  


     PseudoPot. # 1 for Al read from file:
     ./Al.upf
     MD5 check sum: 4974d48a734c9d7d1eb6780a1419d19d
     Pseudo is Norm-conserving + core correction, Zval =  3.0
     Generated using ONCVPSP code by D. R. Hamann
     Using radial grid of 1876 points,  6 beta functions with: 
                l(1) =   0
                l(2) =   0
                l(3) =   1
                l(4) =   1
                l(5) =   2
                l(6) =   2

     atomic species   valence    mass     pseudopotential
        Al             3.00    29.98200     Al( 1.00)

      2 Sym. Ops. (no inversion) found



   Cartesian axes

     site n.     atom                  positions (alat units)
         1           Al  tau(   1) = (  -0.0000000   0.1443393   0.0000000  )
         2           Al  tau(   2) = (   0.1250015   0.0721696   0.0000000  )
         3           Al  tau(   3) = (  -0.1249997   0.3608472   0.0000000  )
         4           Al  tau(   4) = (   0.0000018   0.2886775   0.0000000  )
         5           Al  tau(   5) = (  -0.2499994   0.5773550   0.0000000  )
         6           Al  tau(   6) = (  -0.1249979   0.5051854   0.0000000  )
         7           Al  tau(   7) = (  -0.3749991   0.7938629   0.0000000  )
         8           Al  tau(   8) = (  -0.2499976   0.7216932   0.0000000  )
         9           Al  tau(   9) = (   0.2500011   0.1443403   0.0000000  )
        10           Al  tau(  10) = (   0.3750027   0.0721706   0.0000000  )
        11           Al  tau(  11) = (   0.1250014   0.3608482   0.0000000  )
        12           Al  tau(  12) = (   0.2500030   0.2886785   0.0000000  )
        13           Al  tau(  13) = (   0.0000017   0.5773560   0.0000000  )
        14           Al  tau(  14) = (   0.1250033   0.5051864   0.0000000  )
        15           Al  tau(  15) = (  -0.1249980   0.7938639   0.0000000  )
        16           Al  tau(  16) = (   0.0000036   0.7216942   0.0000000  )
        17           Al  tau(  17) = (   0.5000023   0.1443413   0.0000000  )
        18           Al  tau(  18) = (   0.3750026   0.3608492   0.0000000  )
        19           Al  tau(  19) = (   0.5000041   0.2886795   0.0000000  )
        20           Al  tau(  20) = (   0.2500029   0.5773571   0.0000000  )
        21           Al  tau(  21) = (   0.3750044   0.5051874   0.0000000  )
        22           Al  tau(  22) = (   0.1250032   0.7938649   0.0000000  )
        23           Al  tau(  23) = (   0.2500047   0.7216953   0.0000000  )
        24           Al  tau(  24) = (   0.7500035   0.1443423   0.0000000  )
        25           Al  tau(  25) = (   0.8750050   0.0721727   0.0000000  )
        26           Al  tau(  26) = (   0.6250038   0.3608502   0.0000000  )
        27           Al  tau(  27) = (   0.7500053   0.2886805   0.0000000  )
        28           Al  tau(  28) = (   0.5000041   0.5773581   0.0000000  )
        29           Al  tau(  29) = (   0.6250056   0.5051884   0.0000000  )
        30           Al  tau(  30) = (   0.3750044   0.7938660   0.0000000  )
        31           Al  tau(  31) = (   0.5000059   0.7216963   0.0000000  )

     number of k points=     1  Methfessel-Paxton smearing, width (Ry)=  0.0500
                       cart. coord. in units 2pi/alat
        k(    1) = (   0.0000000   0.0000000   0.0000000), wk =   2.0000000

     Dense  grid:  3588803 G-vectors     FFT dimensions: ( 192, 192, 216)

     Estimated max dynamical RAM per process >       1.15 GB

     Estimated total dynamical RAM >       9.23 GB

     Initial potential from superposition of free atoms

     starting charge   92.92414, renormalised to   93.00000

     negative rho (up, down):  9.278E-05 0.000E+00
     Starting wfcs are  124 randomized atomic wfcs

     total cpu time spent up to now is       29.0 secs

     Self-consistent Calculation

     iteration #  1     ecut=    80.00 Ry     beta= 0.40
     Davidson diagonalization with overlap
     ethr =  1.00E-02,  avg # of iterations =  2.0

     total cpu time spent up to now is       54.0 secs

     total energy              =    -140.64265772 Ry
     Harris-Foulkes estimate   =    -141.23605307 Ry
     estimated scf accuracy    <       1.54788000 Ry

     iteration #  2     ecut=    80.00 Ry     beta= 0.40
     Davidson diagonalization with overlap
     ethr =  1.66E-03,  avg # of iterations =  5.0

     total cpu time spent up to now is       80.0 secs

     total energy              =    -140.22001513 Ry
     Harris-Foulkes estimate   =    -141.45734212 Ry
     estimated scf accuracy    <       6.73438077 Ry

     iteration #  3     ecut=    80.00 Ry     beta= 0.40
     Davidson diagonalization with overlap
     ethr =  1.66E-03,  avg # of iterations =  5.0

     total cpu time spent up to now is      104.3 secs

     total energy              =    -140.82768787 Ry
     Harris-Foulkes estimate   =    -141.02303337 Ry
     estimated scf accuracy    <       1.17337713 Ry

     iteration #  4     ecut=    80.00 Ry     beta= 0.40
     Davidson diagonalization with overlap
     ethr =  1.26E-03,  avg # of iterations =  1.0

     total cpu time spent up to now is      122.7 secs

     total energy              =    -140.90065394 Ry
     Harris-Foulkes estimate   =    -140.94398439 Ry
     estimated scf accuracy    <       0.14887352 Ry

     iteration #  5     ecut=    80.00 Ry     beta= 0.40
     Davidson diagonalization with overlap
     ethr =  1.60E-04,  avg # of iterations =  5.0

     total cpu time spent up to now is      144.5 secs

     total energy              =    -140.91340990 Ry
     Harris-Foulkes estimate   =    -140.95561767 Ry
     estimated scf accuracy    <       0.30321507 Ry

     iteration #  6     ecut=    80.00 Ry     beta= 0.40
     Davidson diagonalization with overlap
     ethr =  1.60E-04,  avg # of iterations =  3.0

     total cpu time spent up to now is      164.9 secs

     total energy              =    -140.93246856 Ry
     Harris-Foulkes estimate   =    -140.93471777 Ry
     estimated scf accuracy    <       0.00984689 Ry

     iteration #  7     ecut=    80.00 Ry     beta= 0.40
     Davidson diagonalization with overlap
     ethr =  1.06E-05,  avg # of iterations = 11.0

     total cpu time spent up to now is      198.5 secs

     total energy              =    -140.93555628 Ry
     Harris-Foulkes estimate   =    -140.93680604 Ry
     estimated scf accuracy    <       0.00642144 Ry

     iteration #  8     ecut=    80.00 Ry     beta= 0.40
     Davidson diagonalization with overlap
     ethr =  6.90E-06,  avg # of iterations =  4.0

     total cpu time spent up to now is      220.3 secs

     total energy              =    -140.93545713 Ry
     Harris-Foulkes estimate   =    -140.93688483 Ry
     estimated scf accuracy    <       0.00953276 Ry

     iteration #  9     ecut=    80.00 Ry     beta= 0.40
     Davidson diagonalization with overlap
     ethr =  6.90E-06,  avg # of iterations =  3.0

     total cpu time spent up to now is      241.0 secs

     total energy              =    -140.93589880 Ry
     Harris-Foulkes estimate   =    -140.93619184 Ry
     estimated scf accuracy    <       0.00158940 Ry

     iteration # 10     ecut=    80.00 Ry     beta= 0.40
     Davidson diagonalization with overlap
     ethr =  1.71E-06,  avg # of iterations =  5.0

     total cpu time spent up to now is      262.5 secs

     total energy              =    -140.93603662 Ry
     Harris-Foulkes estimate   =    -140.93611448 Ry
     estimated scf accuracy    <       0.00030455 Ry

     iteration # 11     ecut=    80.00 Ry     beta= 0.40
     Davidson diagonalization with overlap
     ethr =  3.27E-07,  avg # of iterations =  5.0

     total cpu time spent up to now is      287.6 secs

     total energy              =    -140.93605851 Ry
     Harris-Foulkes estimate   =    -140.93615625 Ry
     estimated scf accuracy    <       0.00060664 Ry

     iteration # 12     ecut=    80.00 Ry     beta= 0.40
     Davidson diagonalization with overlap
     ethr =  3.27E-07,  avg # of iterations =  3.0

     total cpu time spent up to now is      308.4 secs

     total energy              =    -140.93610836 Ry
     Harris-Foulkes estimate   =    -140.93611525 Ry
     estimated scf accuracy    <       0.00003994 Ry

     iteration # 13     ecut=    80.00 Ry     beta= 0.40
     Davidson diagonalization with overlap
     ethr =  4.29E-08,  avg # of iterations =  3.0

     total cpu time spent up to now is      331.0 secs

     total energy              =    -140.93611218 Ry
     Harris-Foulkes estimate   =    -140.93611748 Ry
     estimated scf accuracy    <       0.00002854 Ry

     iteration # 14     ecut=    80.00 Ry     beta= 0.40
     Davidson diagonalization with overlap
     ethr =  3.07E-08,  avg # of iterations =  3.0

     total cpu time spent up to now is      351.1 secs

     total energy              =    -140.93611343 Ry
     Harris-Foulkes estimate   =    -140.93611687 Ry
     estimated scf accuracy    <       0.00001978 Ry

     iteration # 15     ecut=    80.00 Ry     beta= 0.40
     Davidson diagonalization with overlap
     ethr =  2.13E-08,  avg # of iterations =  1.0

     total cpu time spent up to now is      370.4 secs

     total energy              =    -140.93611455 Ry
     Harris-Foulkes estimate   =    -140.93611592 Ry
     estimated scf accuracy    <       0.00000668 Ry

     iteration # 16     ecut=    80.00 Ry     beta= 0.40
     Davidson diagonalization with overlap
     ethr =  7.19E-09,  avg # of iterations =  3.0

     total cpu time spent up to now is      390.7 secs

     total energy              =    -140.93611518 Ry
     Harris-Foulkes estimate   =    -140.93611569 Ry
     estimated scf accuracy    <       0.00000282 Ry

     iteration # 17     ecut=    80.00 Ry     beta= 0.40
     Davidson diagonalization with overlap
     ethr =  3.03E-09,  avg # of iterations =  4.0

     total cpu time spent up to now is      410.8 secs

     End of self-consistent calculation

          k = 0.0000 0.0000 0.0000 (448403 PWs)   bands (ev):

    -9.9529  -9.4483  -9.4330  -9.4329  -9.4259  -9.4257  -9.1459  -8.4049
    -8.4047  -8.3882  -8.3881  -8.3797  -8.3033  -8.2569  -8.2569  -7.5865
    -6.9325  -6.9324  -6.8232  -6.4865  -6.4772  -6.4772  -6.3701  -6.3701
    -5.4640  -4.8435  -4.8434  -4.8369  -4.7356  -4.7356  -4.4781  -4.4682
    -4.4427  -4.4427  -4.1225  -4.1223  -3.9779  -3.4711  -3.4688  -3.4686
    -3.4578  -3.4575  -3.4017  -3.2745  -3.2743  -3.2224  -3.2074  -2.9743
    -2.9652  -2.9652  -2.9389  -2.5198  -2.5196  -2.4500  -2.4485  -2.4314

     the Fermi energy is    -3.0910 ev

!    total energy              =    -140.93611523 Ry
     Harris-Foulkes estimate   =    -140.93611551 Ry
     estimated scf accuracy    <       0.00000037 Ry

     The total energy is the sum of the following terms:

     one-electron contribution =    -502.03552728 Ry
     hartree contribution      =     259.76268418 Ry
     xc contribution           =     -61.33567949 Ry
     ewald contribution        =     162.75341060 Ry
     smearing contrib. (-TS)   =      -0.08100324 Ry

     convergence has been achieved in  17 iterations

     Forces acting on atoms (cartesian axes, Ry/au):

     atom    1 type  1   force =    -0.00371935   -0.00396397    0.00000000
     atom    2 type  1   force =     0.00000914    0.00231691    0.00000000
     atom    3 type  1   force =    -0.00528449   -0.00122386    0.00000000
     atom    4 type  1   force =     0.00186233    0.00107335    0.00000000
     atom    5 type  1   force =     0.00044284   -0.00029307    0.00000000
     atom    6 type  1   force =     0.00198771   -0.00116381    0.00000000
     atom    7 type  1   force =    -0.00001202    0.00051581    0.00000000
     atom    8 type  1   force =    -0.00111222   -0.00062904    0.00000000
     atom    9 type  1   force =     0.00371253   -0.00394547    0.00000000
     atom   10 type  1   force =    -0.00257650   -0.00216663    0.00000000
     atom   11 type  1   force =     0.00001135    0.00000867    0.00000000
     atom   12 type  1   force =    -0.00187073    0.00106136    0.00000000
     atom   13 type  1   force =    -0.00154009    0.00517703    0.00000000
     atom   14 type  1   force =    -0.00000314   -0.00213200    0.00000000
     atom   15 type  1   force =     0.00110854    0.00060085    0.00000000
     atom   16 type  1   force =    -0.00319630   -0.00111674    0.00000000
     atom   17 type  1   force =     0.01314658   -0.00754921    0.00000000
     atom   18 type  1   force =     0.00527911   -0.00119318    0.00000000
     atom   19 type  1   force =     0.00064316    0.00329226    0.00000000
     atom   20 type  1   force =     0.00156886    0.00516846    0.00000000
     atom   21 type  1   force =    -0.00201563   -0.00117828    0.00000000
     atom   22 type  1   force =     0.00004467    0.01514998    0.00000000
     atom   23 type  1   force =     0.00316157   -0.00108135    0.00000000
     atom   24 type  1   force =    -0.01310994   -0.00756161    0.00000000
     atom   25 type  1   force =     0.00253712   -0.00215518    0.00000000
     atom   26 type  1   force =    -0.00000457   -0.00133488    0.00000000
     atom   27 type  1   force =    -0.00063973    0.00328033    0.00000000
     atom   28 type  1   force =    -0.00046158   -0.00027293    0.00000000
     atom   29 type  1   force =     0.00002493    0.00133728    0.00000000
     atom   30 type  1   force =    -0.00114400    0.00060967    0.00000000
     atom   31 type  1   force =     0.00114989   -0.00063074    0.00000000

     Total force =     0.031189     Total SCF correction =     0.000457


     Computing stress (Cartesian axis) and pressure

          total   stress  (Ry/bohr**3)                   (kbar)     P=   -0.57
  -0.00000581  -0.00000001   0.00000000         -0.85     -0.00      0.00
  -0.00000001  -0.00000576   0.00000000         -0.00     -0.85      0.00
   0.00000000   0.00000000  -0.00000000          0.00      0.00     -0.00


     BFGS Geometry Optimization

     number of scf cycles    =   1
     number of bfgs steps    =   0

     enthalpy new            =    -140.9361152274 Ry

     new trust radius        =       0.0151599186 bohr
     new conv_thr            =       0.0000010000 Ry

     new unit-cell volume =  37119.57364 a.u.^3 (  5500.55324 Ang^3 )
     density =      0.28059 g/cm^3

CELL_PARAMETERS (alat= 33.68096681)
   0.999854837  -0.000000226   0.000000000
  -0.499927615   0.865900760   0.000000000
   0.000000000   0.000000000   1.122132950

ATOMIC_POSITIONS (angstrom)
Al      -0.001969079   2.570119931   0.000000000
Al       2.227607872   1.287333502   0.000000000
Al      -2.230369303   6.429877435   0.000000000
Al       0.001016287   5.144983244   0.000000000
Al      -4.454911077  10.288677626   0.000000000
Al      -2.226489478   9.002107271   0.000000000
Al      -6.682723853  14.147413316   0.000000000
Al      -4.455701763  12.860697930   0.000000000
Al       4.457137108   2.570146904   0.000000000
Al       6.681413784   1.284978440   0.000000000
Al       2.227606707   6.430546752   0.000000000
Al       4.454215098   5.144994087   0.000000000
Al      -0.000786270  10.291589048   0.000000000
Al       2.227631134   9.001612185   0.000000000
Al      -2.226956989  14.147475497   0.000000000
Al      -0.001630473  12.860457072   0.000000000
Al       8.917302644   2.568257343   0.000000000
Al       6.685567854   6.429928038   0.000000000
Al       8.910719174   5.146191641   0.000000000
Al       4.456032651  10.291601695   0.000000000
Al       6.681740301   9.002133983   0.000000000
Al       2.227654093  14.155190641   0.000000000
Al       4.456907453  12.860492981   0.000000000
Al      13.358584286   2.568267967   0.000000000
Al      15.594467354   1.285018867   0.000000000
Al      11.137946231   6.429870250   0.000000000
Al      13.365214374   5.146202511   0.000000000
Al       8.910132321  10.288739839   0.000000000
Al      11.137993939   9.003482153   0.000000000
Al       6.682199142  14.147514534   0.000000000
Al       8.911017048  12.860748580   0.000000000



     Writing output data file 18al_planar_2x2_vcr.save/
     NEW-OLD atomic charge density approx. for the potential

     negative rho (up, down):  2.989E-07 0.000E+00
     extrapolated charge   92.97312, renormalised to   93.00000

     total cpu time spent up to now is      484.0 secs

     Self-consistent Calculation

     iteration #  1     ecut=    80.00 Ry     beta= 0.40
     Davidson diagonalization with overlap
     ethr =  1.00E-06,  avg # of iterations =  4.0

     Threshold (ethr) on eigenvalues was too large:
     Diagonalizing with lowered threshold

     Davidson diagonalization with overlap
     ethr =  9.09E-08,  avg # of iterations =  4.0

     negative rho (up, down):  1.479E-07 0.000E+00

     total cpu time spent up to now is      535.8 secs

     total energy              =    -140.93706727 Ry
     Harris-Foulkes estimate   =    -141.07015515 Ry
     estimated scf accuracy    <       0.00009884 Ry

     iteration #  2     ecut=    80.00 Ry     beta= 0.40
     Davidson diagonalization with overlap
     ethr =  1.06E-07,  avg # of iterations =  5.0

     negative rho (up, down):  1.335E-07 0.000E+00

     total cpu time spent up to now is      563.9 secs

     total energy              =    -140.93701584 Ry
     Harris-Foulkes estimate   =    -140.93722243 Ry
     estimated scf accuracy    <       0.00163083 Ry

     iteration #  3     ecut=    80.00 Ry     beta= 0.40
     Davidson diagonalization with overlap
     ethr =  1.06E-07,  avg # of iterations =  4.0

     negative rho (up, down):  9.118E-08 0.000E+00

     total cpu time spent up to now is      588.3 secs

     total energy              =    -140.93711343 Ry
     Harris-Foulkes estimate   =    -140.93711915 Ry
     estimated scf accuracy    <       0.00002138 Ry

     iteration #  4     ecut=    80.00 Ry     beta= 0.40
     Davidson diagonalization with overlap
     ethr =  2.30E-08,  avg # of iterations =  5.0

     negative rho (up, down):  6.718E-08 0.000E+00

     total cpu time spent up to now is      610.7 secs

     total energy              =    -140.93711435 Ry
     Harris-Foulkes estimate   =    -140.93711838 Ry
     estimated scf accuracy    <       0.00001848 Ry

     iteration #  5     ecut=    80.00 Ry     beta= 0.40
     Davidson diagonalization with overlap
     ethr =  1.99E-08,  avg # of iterations =  3.0

     negative rho (up, down):  3.569E-08 0.000E+00

     total cpu time spent up to now is      630.5 secs

     total energy              =    -140.93711613 Ry
     Harris-Foulkes estimate   =    -140.93711771 Ry
     estimated scf accuracy    <       0.00000943 Ry

     iteration #  6     ecut=    80.00 Ry     beta= 0.40
     Davidson diagonalization with overlap
     ethr =  1.01E-08,  avg # of iterations =  2.0

     total cpu time spent up to now is      648.9 secs

     End of self-consistent calculation

          k = 0.0000 0.0000 0.0000 (448403 PWs)   bands (ev):

    -9.9529  -9.4482  -9.4331  -9.4329  -9.4250  -9.4249  -9.1434  -8.4037
    -8.4035  -8.3842  -8.3840  -8.3824  -8.3046  -8.2540  -8.2539  -7.5847
    -6.9319  -6.9318  -6.8225  -6.4818  -6.4772  -6.4771  -6.3718  -6.3717
    -5.4689  -4.8392  -4.8391  -4.8346  -4.7360  -4.7359  -4.4763  -4.4670
    -4.4426  -4.4426  -4.1247  -4.1247  -3.9777  -3.4708  -3.4673  -3.4672
    -3.4581  -3.4579  -3.3995  -3.2728  -3.2727  -3.2208  -3.2171  -2.9698
    -2.9630  -2.9629  -2.9408  -2.5166  -2.5165  -2.4463  -2.4450  -2.4333

     the Fermi energy is    -3.0904 ev

!    total energy              =    -140.93711686 Ry
     Harris-Foulkes estimate   =    -140.93711713 Ry
     estimated scf accuracy    <       0.00000086 Ry

     The total energy is the sum of the following terms:

     one-electron contribution =    -502.12229621 Ry
     hartree contribution      =     259.80419489 Ry
     xc contribution           =     -61.33333624 Ry
     ewald contribution        =     162.79497501 Ry
     smearing contrib. (-TS)   =      -0.08065431 Ry

     convergence has been achieved in   6 iterations

     Forces acting on atoms (cartesian axes, Ry/au):

     atom    1 type  1   force =    -0.00327095   -0.00322853    0.00000000
     atom    2 type  1   force =     0.00000499    0.00225890    0.00000000
     atom    3 type  1   force =    -0.00444110   -0.00120471    0.00000000
     atom    4 type  1   force =     0.00137506    0.00077893    0.00000000
     atom    5 type  1   force =     0.00064579   -0.00040820    0.00000000
     atom    6 type  1   force =     0.00195062   -0.00112665    0.00000000
     atom    7 type  1   force =    -0.00000882    0.00075124    0.00000000
     atom    8 type  1   force =    -0.00089094   -0.00048364    0.00000000
     atom    9 type  1   force =     0.00327079   -0.00321923    0.00000000
     atom   10 type  1   force =    -0.00140189   -0.00160204    0.00000000
     atom   11 type  1   force =     0.00000761   -0.00000313    0.00000000
     atom   12 type  1   force =    -0.00137668    0.00076532    0.00000000
     atom   13 type  1   force =    -0.00115970    0.00443561    0.00000000
     atom   14 type  1   force =    -0.00000385   -0.00157471    0.00000000
     atom   15 type  1   force =     0.00079318    0.00043778    0.00000000
     atom   16 type  1   force =    -0.00212085   -0.00040349    0.00000000
     atom   17 type  1   force =     0.01298501   -0.00746602    0.00000000
     atom   18 type  1   force =     0.00443592   -0.00119219    0.00000000
     atom   19 type  1   force =     0.00072867    0.00198858    0.00000000
     atom   20 type  1   force =     0.00117543    0.00442188    0.00000000
     atom   21 type  1   force =    -0.00198010   -0.00113683    0.00000000
     atom   22 type  1   force =     0.00004075    0.01499178    0.00000000
     atom   23 type  1   force =     0.00208928   -0.00037055    0.00000000
     atom   24 type  1   force =    -0.01295669   -0.00748336    0.00000000
     atom   25 type  1   force =     0.00137344   -0.00157526    0.00000000
     atom   26 type  1   force =    -0.00001537   -0.00095753    0.00000000
     atom   27 type  1   force =    -0.00071131    0.00199313    0.00000000
     atom   28 type  1   force =    -0.00065249   -0.00038531    0.00000000
     atom   29 type  1   force =     0.00001536    0.00106290    0.00000000
     atom   30 type  1   force =    -0.00083485    0.00044128    0.00000000
     atom   31 type  1   force =     0.00093370   -0.00050596    0.00000000

     Total force =     0.029273     Total SCF correction =     0.000547


     Computing stress (Cartesian axis) and pressure

          total   stress  (Ry/bohr**3)                   (kbar)     P=   -0.58
  -0.00000594  -0.00000001   0.00000000         -0.87     -0.00      0.00
  -0.00000001  -0.00000591   0.00000000         -0.00     -0.87      0.00
   0.00000000   0.00000000  -0.00000007          0.00      0.00     -0.01


     number of scf cycles    =   2
     number of bfgs steps    =   1

     enthalpy old            =    -140.9361152274 Ry
     enthalpy new            =    -140.9371168644 Ry

     CASE: enthalpy_new < enthalpy_old


     WARNING: bfgs curvature condition failed, Theta= 0.853
     new trust radius        =       0.0227365877 bohr
     new conv_thr            =       0.0000010000 Ry

     new unit-cell volume =  37103.12126 a.u.^3 (  5498.11525 Ang^3 )
     density =      0.28071 g/cm^3

CELL_PARAMETERS (alat= 33.68096681)
   0.999632543  -0.000000625   0.000000000
  -0.499816812   0.865709638   0.000000000
   0.000000000   0.000000000   1.122132950

ATOMIC_POSITIONS (angstrom)
Al      -0.004723122   2.566743068   0.000000000
Al       2.227117383   1.288871301   0.000000000
Al      -2.233687560   6.427489012   0.000000000
Al       0.002264611   5.144560622   0.000000000
Al      -4.453471922  10.286115799   0.000000000
Al      -2.224427793   8.999207274   0.000000000
Al      -6.681251787  14.144817058   0.000000000
Al      -4.455497142  12.857426366   0.000000000
Al       4.458896404   2.566778554   0.000000000
Al       6.678441636   1.283235793   0.000000000
Al       2.227116137   6.429126209   0.000000000
Al       4.451968755   5.144559321   0.000000000
Al      -0.001835406  10.293090544   0.000000000
Al       2.227129432   8.998190436   0.000000000
Al      -2.225735447  14.144751130   0.000000000
Al      -0.003665032  12.857070914   0.000000000
Al       8.925745494   2.561694436   0.000000000
Al       6.687886286   6.427551713   0.000000000
Al       8.909291665   5.147046263   0.000000000
Al       4.456099700  10.293092050   0.000000000
Al       6.678657864   8.999220965   0.000000000
Al       2.227186966  14.164091143   0.000000000
Al       4.457915033  12.857132120   0.000000000
Al      13.345212115   2.561690988   0.000000000
Al      15.592459839   1.283289284   0.000000000
Al      11.135458500   6.427562424   0.000000000
Al      13.361694796   5.147053854   0.000000000
Al       8.907685360  10.286190114   0.000000000
Al      11.135529343   9.002423230   0.000000000
Al       6.679944447  14.144791068   0.000000000
Al       8.909844237  12.857460270   0.000000000



     Writing output data file 18al_planar_2x2_vcr.save/
     NEW-OLD atomic charge density approx. for the potential

     negative rho (up, down):  4.807E-07 0.000E+00
     extrapolated charge   92.95880, renormalised to   93.00000

     total cpu time spent up to now is      720.3 secs

     Self-consistent Calculation

     iteration #  1     ecut=    80.00 Ry     beta= 0.40
     Davidson diagonalization with overlap
     ethr =  1.00E-06,  avg # of iterations =  4.0

     negative rho (up, down):  2.409E-07 0.000E+00

     total cpu time spent up to now is      749.3 secs

     total energy              =    -140.93841388 Ry
     Harris-Foulkes estimate   =    -141.14245134 Ry
     estimated scf accuracy    <       0.00012734 Ry

     iteration #  2     ecut=    80.00 Ry     beta= 0.40
     Davidson diagonalization with overlap
     ethr =  1.37E-07,  avg # of iterations =  5.0

     negative rho (up, down):  2.165E-07 0.000E+00

     total cpu time spent up to now is      777.6 secs

     total energy              =    -140.93837568 Ry
     Harris-Foulkes estimate   =    -140.93858491 Ry
     estimated scf accuracy    <       0.00155467 Ry

     iteration #  3     ecut=    80.00 Ry     beta= 0.40
     Davidson diagonalization with overlap
     ethr =  1.37E-07,  avg # of iterations =  5.0

     negative rho (up, down):  1.388E-07 0.000E+00

     total cpu time spent up to now is      802.1 secs

     total energy              =    -140.93847988 Ry
     Harris-Foulkes estimate   =    -140.93848852 Ry
     estimated scf accuracy    <       0.00004624 Ry

     iteration #  4     ecut=    80.00 Ry     beta= 0.40
     Davidson diagonalization with overlap
     ethr =  4.97E-08,  avg # of iterations =  1.0

     negative rho (up, down):  8.432E-08 0.000E+00

     total cpu time spent up to now is      820.6 secs

     total energy              =    -140.93848159 Ry
     Harris-Foulkes estimate   =    -140.93848402 Ry
     estimated scf accuracy    <       0.00000937 Ry

     iteration #  5     ecut=    80.00 Ry     beta= 0.40
     Davidson diagonalization with overlap
     ethr =  1.01E-08,  avg # of iterations =  5.0

     negative rho (up, down):  5.048E-08 0.000E+00

     total cpu time spent up to now is      845.9 secs

     total energy              =    -140.93848090 Ry
     Harris-Foulkes estimate   =    -140.93848590 Ry
     estimated scf accuracy    <       0.00003010 Ry

     iteration #  6     ecut=    80.00 Ry     beta= 0.40
     Davidson diagonalization with overlap
     ethr =  1.01E-08,  avg # of iterations =  4.0

     negative rho (up, down):  1.769E-08 0.000E+00

     total cpu time spent up to now is      868.4 secs

     total energy              =    -140.93848365 Ry
     Harris-Foulkes estimate   =    -140.93848413 Ry
     estimated scf accuracy    <       0.00000436 Ry

     iteration #  7     ecut=    80.00 Ry     beta= 0.40
     Davidson diagonalization with overlap
     ethr =  4.69E-09,  avg # of iterations =  3.0

     total cpu time spent up to now is      888.1 secs

     End of self-consistent calculation

          k = 0.0000 0.0000 0.0000 (448403 PWs)   bands (ev):

    -9.9540  -9.4491  -9.4355  -9.4354  -9.4237  -9.4235  -9.1415  -8.4032
    -8.4031  -8.3870  -8.3800  -8.3798  -8.3071  -8.2507  -8.2507  -7.5838
    -6.9323  -6.9322  -6.8226  -6.4779  -6.4778  -6.4766  -6.3751  -6.3749
    -5.4773  -4.8344  -4.8343  -4.8325  -4.7375  -4.7374  -4.4747  -4.4661
    -4.4435  -4.4434  -4.1291  -4.1290  -3.9782  -3.4711  -3.4670  -3.4667
    -3.4585  -3.4585  -3.3974  -3.2713  -3.2712  -3.2329  -3.2197  -2.9652
    -2.9610  -2.9609  -2.9435  -2.5133  -2.5131  -2.4420  -2.4412  -2.4366

     the Fermi energy is    -3.0905 ev

!    total energy              =    -140.93848363 Ry
     Harris-Foulkes estimate   =    -140.93848405 Ry
     estimated scf accuracy    <       0.00000069 Ry

     The total energy is the sum of the following terms:

     one-electron contribution =    -502.25963391 Ry
     hartree contribution      =     259.87331371 Ry
     xc contribution           =     -61.33132955 Ry
     ewald contribution        =     162.85932264 Ry
     smearing contrib. (-TS)   =      -0.08015652 Ry

     convergence has been achieved in   7 iterations

     Forces acting on atoms (cartesian axes, Ry/au):

     atom    1 type  1   force =    -0.00266915   -0.00228810    0.00000000
     atom    2 type  1   force =     0.00000292    0.00221986    0.00000000
     atom    3 type  1   force =    -0.00332267   -0.00117078    0.00000000
     atom    4 type  1   force =     0.00075565    0.00042612    0.00000000
     atom    5 type  1   force =     0.00088335   -0.00054775    0.00000000
     atom    6 type  1   force =     0.00190850   -0.00109721    0.00000000
     atom    7 type  1   force =    -0.00001685    0.00102762    0.00000000
     atom    8 type  1   force =    -0.00063205   -0.00034766    0.00000000
     atom    9 type  1   force =     0.00264680   -0.00226573    0.00000000
     atom   10 type  1   force =     0.00019713   -0.00078232    0.00000000
     atom   11 type  1   force =     0.00000250    0.00000275    0.00000000
     atom   12 type  1   force =    -0.00074876    0.00040842    0.00000000
     atom   13 type  1   force =    -0.00063314    0.00344082    0.00000000
     atom   14 type  1   force =    -0.00000816   -0.00086039    0.00000000
     atom   15 type  1   force =     0.00039679    0.00021456    0.00000000
     atom   16 type  1   force =    -0.00060195    0.00057052    0.00000000
     atom   17 type  1   force =     0.01285250   -0.00738655    0.00000000
     atom   18 type  1   force =     0.00330446   -0.00114846    0.00000000
     atom   19 type  1   force =     0.00081346    0.00020184    0.00000000
     atom   20 type  1   force =     0.00065042    0.00343508    0.00000000
     atom   21 type  1   force =    -0.00192219   -0.00111758    0.00000000
     atom   22 type  1   force =     0.00001967    0.01483992    0.00000000
     atom   23 type  1   force =     0.00059578    0.00059172    0.00000000
     atom   24 type  1   force =    -0.01281094   -0.00738464    0.00000000
     atom   25 type  1   force =    -0.00021731   -0.00077636    0.00000000
     atom   26 type  1   force =     0.00000652   -0.00048521    0.00000000
     atom   27 type  1   force =    -0.00081236    0.00020046    0.00000000
     atom   28 type  1   force =    -0.00089870   -0.00051902    0.00000000
     atom   29 type  1   force =     0.00002263    0.00073824    0.00000000
     atom   30 type  1   force =    -0.00040680    0.00021097    0.00000000
     atom   31 type  1   force =     0.00064195   -0.00035113    0.00000000

     Total force =     0.027545     Total SCF correction =     0.000581


     Computing stress (Cartesian axis) and pressure

          total   stress  (Ry/bohr**3)                   (kbar)     P=   -0.60
  -0.00000611  -0.00000002   0.00000000         -0.90     -0.00      0.00
  -0.00000002  -0.00000608   0.00000000         -0.00     -0.89      0.00
   0.00000000   0.00000000  -0.00000000          0.00      0.00     -0.00


     number of scf cycles    =   3
     number of bfgs steps    =   2

     enthalpy old            =    -140.9371168644 Ry
     enthalpy new            =    -140.9384836309 Ry

     CASE: enthalpy_new < enthalpy_old

     new trust radius        =       0.0340973459 bohr
     new conv_thr            =       0.0000010000 Ry

     new unit-cell volume =  37077.94957 a.u.^3 (  5494.38519 Ang^3 )
     density =      0.28090 g/cm^3

CELL_PARAMETERS (alat= 33.68096681)
   0.999292257  -0.000001398   0.000000000
  -0.499647339   0.865417304   0.000000000
   0.000000000   0.000000000   1.122132950

ATOMIC_POSITIONS (angstrom)
Al      -0.008499819   2.562222635   0.000000000
Al       2.226365111   1.291159225   0.000000000
Al      -2.237983401   6.423879152   0.000000000
Al       0.003762272   5.143680856   0.000000000
Al      -4.451136031  10.282117957   0.000000000
Al      -2.221336784   8.994809011   0.000000000
Al      -6.679006148  14.141002852   0.000000000
Al      -4.455008721  12.852512747   0.000000000
Al       4.461134090   2.562279665   0.000000000
Al       6.674920514   1.281114193   0.000000000
Al       2.226360777   6.426957218   0.000000000
Al       4.448946965   5.143657851   0.000000000
Al      -0.003090457  10.294682896   0.000000000
Al       2.226357166   8.993429351   0.000000000
Al      -2.224129856  14.140435179   0.000000000
Al      -0.005786490  12.852507824   0.000000000
Al       8.938340632   2.551838755   0.000000000
Al       6.690640773   6.423966467   0.000000000
Al       8.907143155   5.147195624   0.000000000
Al       4.455849587  10.294672610   0.000000000
Al       6.674012664   8.994794344   0.000000000
Al       2.226454782  14.177337530   0.000000000
Al       4.458477724  12.852598621   0.000000000
Al      13.325079320   2.551826739   0.000000000
Al      15.588363102   1.281170634   0.000000000
Al      11.131665029   6.424341253   0.000000000
Al      13.356256404   5.147192289   0.000000000
Al       8.903796838  10.282211926   0.000000000
Al      11.131760319   9.000580488   0.000000000
Al       6.676775264  14.140470527   0.000000000
Al       8.907846146  12.852533337   0.000000000



     Writing output data file 18al_planar_2x2_vcr.save/
     NEW-OLD atomic charge density approx. for the potential

     negative rho (up, down):  7.501E-07 0.000E+00
     extrapolated charge   92.93692, renormalised to   93.00000

     total cpu time spent up to now is      959.6 secs

     Self-consistent Calculation

     iteration #  1     ecut=    80.00 Ry     beta= 0.40
     Davidson diagonalization with overlap
     ethr =  1.00E-06,  avg # of iterations =  5.0

     negative rho (up, down):  3.816E-07 0.000E+00

     total cpu time spent up to now is      991.8 secs

     total energy              =    -140.94019306 Ry
     Harris-Foulkes estimate   =    -141.25275880 Ry
     estimated scf accuracy    <       0.00027090 Ry

     iteration #  2     ecut=    80.00 Ry     beta= 0.40
     Davidson diagonalization with overlap
     ethr =  2.91E-07,  avg # of iterations =  5.0

     negative rho (up, down):  3.458E-07 0.000E+00

     total cpu time spent up to now is     1019.6 secs

     total energy              =    -140.94010852 Ry
     Harris-Foulkes estimate   =    -140.94062962 Ry
     estimated scf accuracy    <       0.00417041 Ry

     iteration #  3     ecut=    80.00 Ry     beta= 0.40
     Davidson diagonalization with overlap
     ethr =  2.91E-07,  avg # of iterations =  4.0

     negative rho (up, down):  2.356E-07 0.000E+00

     total cpu time spent up to now is     1043.4 secs

     total energy              =    -140.94034755 Ry
     Harris-Foulkes estimate   =    -140.94036206 Ry
     estimated scf accuracy    <       0.00005833 Ry

     iteration #  4     ecut=    80.00 Ry     beta= 0.40
     Davidson diagonalization with overlap
     ethr =  6.27E-08,  avg # of iterations =  5.0

     negative rho (up, down):  1.877E-07 0.000E+00

     total cpu time spent up to now is     1065.8 secs

     total energy              =    -140.94034587 Ry
     Harris-Foulkes estimate   =    -140.94036031 Ry
     estimated scf accuracy    <       0.00007376 Ry

     iteration #  5     ecut=    80.00 Ry     beta= 0.40
     Davidson diagonalization with overlap
     ethr =  6.27E-08,  avg # of iterations =  3.0

     negative rho (up, down):  8.430E-08 0.000E+00

     total cpu time spent up to now is     1086.0 secs

     total energy              =    -140.94035148 Ry
     Harris-Foulkes estimate   =    -140.94035719 Ry
     estimated scf accuracy    <       0.00003580 Ry

     iteration #  6     ecut=    80.00 Ry     beta= 0.40
     Davidson diagonalization with overlap
     ethr =  3.85E-08,  avg # of iterations =  1.0

     negative rho (up, down):  3.743E-08 0.000E+00

     total cpu time spent up to now is     1105.1 secs

     total energy              =    -140.94035348 Ry
     Harris-Foulkes estimate   =    -140.94035535 Ry
     estimated scf accuracy    <       0.00000794 Ry

     iteration #  7     ecut=    80.00 Ry     beta= 0.40
     Davidson diagonalization with overlap
     ethr =  8.54E-09,  avg # of iterations =  4.0

     negative rho (up, down):  2.023E-08 0.000E+00

     total cpu time spent up to now is     1126.5 secs

     total energy              =    -140.94035399 Ry
     Harris-Foulkes estimate   =    -140.94035618 Ry
     estimated scf accuracy    <       0.00001394 Ry

     iteration #  8     ecut=    80.00 Ry     beta= 0.40
     Davidson diagonalization with overlap
     ethr =  8.54E-09,  avg # of iterations =  3.0

     total cpu time spent up to now is     1146.9 secs

     End of self-consistent calculation

          k = 0.0000 0.0000 0.0000 (448403 PWs)   bands (ev):

    -9.9553  -9.4501  -9.4390  -9.4387  -9.4212  -9.4209  -9.1386  -8.4026
    -8.4025  -8.3922  -8.3746  -8.3745  -8.3101  -8.2451  -8.2450  -7.5820
    -6.9327  -6.9327  -6.8230  -6.4782  -6.4781  -6.4693  -6.3784  -6.3783
    -5.4887  -4.8293  -4.8277  -4.8275  -4.7382  -4.7380  -4.4724  -4.4645
    -4.4444  -4.4443  -4.1352  -4.1350  -3.9787  -3.4714  -3.4670  -3.4669
    -3.4580  -3.4579  -3.3938  -3.2689  -3.2687  -3.2557  -3.2180  -2.9602
    -2.9573  -2.9573  -2.9442  -2.5084  -2.5082  -2.4403  -2.4363  -2.4356

     the Fermi energy is    -3.0902 ev

!    total energy              =    -140.94035478 Ry
     Harris-Foulkes estimate   =    -140.94035523 Ry
     estimated scf accuracy    <       0.00000077 Ry

     The total energy is the sum of the following terms:

     one-electron contribution =    -502.46946173 Ry
     hartree contribution      =     259.97793837 Ry
     xc contribution           =     -61.32817457 Ry
     ewald contribution        =     162.95866918 Ry
     smearing contrib. (-TS)   =      -0.07932603 Ry

     convergence has been achieved in   8 iterations

     Forces acting on atoms (cartesian axes, Ry/au):

     atom    1 type  1   force =    -0.00189217   -0.00109831    0.00000000
     atom    2 type  1   force =     0.00000594    0.00212710    0.00000000
     atom    3 type  1   force =    -0.00191140   -0.00108371    0.00000000
     atom    4 type  1   force =    -0.00003356   -0.00002773    0.00000000
     atom    5 type  1   force =     0.00120192   -0.00071399    0.00000000
     atom    6 type  1   force =     0.00186609   -0.00106220    0.00000000
     atom    7 type  1   force =    -0.00000663    0.00139674    0.00000000
     atom    8 type  1   force =    -0.00030255   -0.00016109    0.00000000
     atom    9 type  1   force =     0.00186793   -0.00107825    0.00000000
     atom   10 type  1   force =     0.00225953    0.00027276    0.00000000
     atom   11 type  1   force =    -0.00000176    0.00001294    0.00000000
     atom   12 type  1   force =     0.00002511   -0.00004850    0.00000000
     atom   13 type  1   force =    -0.00001325    0.00214916    0.00000000
     atom   14 type  1   force =    -0.00000730    0.00002085    0.00000000
     atom   15 type  1   force =    -0.00009330   -0.00006514    0.00000000
     atom   16 type  1   force =     0.00136595    0.00184442    0.00000000
     atom   17 type  1   force =     0.01281434   -0.00735536    0.00000000
     atom   18 type  1   force =     0.00190850   -0.00106315    0.00000000
     atom   19 type  1   force =     0.00088902   -0.00211763    0.00000000
     atom   20 type  1   force =     0.00003071    0.00215963    0.00000000
     atom   21 type  1   force =    -0.00187867   -0.00106823    0.00000000
     atom   22 type  1   force =     0.00001653    0.01477766    0.00000000
     atom   23 type  1   force =    -0.00138069    0.00183769    0.00000000
     atom   24 type  1   force =    -0.01278062   -0.00735972    0.00000000
     atom   25 type  1   force =    -0.00226693    0.00029114    0.00000000
     atom   26 type  1   force =    -0.00001070    0.00008123    0.00000000
     atom   27 type  1   force =    -0.00087610   -0.00212251    0.00000000
     atom   28 type  1   force =    -0.00121771   -0.00071655    0.00000000
     atom   29 type  1   force =     0.00001885    0.00037675    0.00000000
     atom   30 type  1   force =     0.00006921   -0.00005672    0.00000000
     atom   31 type  1   force =     0.00033371   -0.00014927    0.00000000

     Total force =     0.027095     Total SCF correction =     0.000598


     Computing stress (Cartesian axis) and pressure

          total   stress  (Ry/bohr**3)                   (kbar)     P=   -0.62
  -0.00000636  -0.00000002   0.00000000         -0.94     -0.00      0.00
  -0.00000002  -0.00000631   0.00000000         -0.00     -0.93      0.00
   0.00000000   0.00000000   0.00000003          0.00      0.00      0.00


     number of scf cycles    =   4
     number of bfgs steps    =   3

     enthalpy old            =    -140.9384836309 Ry
     enthalpy new            =    -140.9403547778 Ry

     CASE: enthalpy_new < enthalpy_old

     new trust radius        =       0.0511287248 bohr
     new conv_thr            =       0.0000010000 Ry

     new unit-cell volume =  37039.75412 a.u.^3 (  5488.72521 Ang^3 )
     density =      0.28119 g/cm^3

CELL_PARAMETERS (alat= 33.68096681)
   0.998775491  -0.000002605   0.000000000
  -0.499390001   0.864973713   0.000000000
   0.000000000   0.000000000   1.122132950

ATOMIC_POSITIONS (angstrom)
Al      -0.013759906   2.556038279   0.000000000
Al       2.225225149   1.294528674   0.000000000
Al      -2.243685263   6.418480020   0.000000000
Al       0.005603219   5.142098483   0.000000000
Al      -4.447441165  10.275978390   0.000000000
Al      -2.216708611   8.988176321   0.000000000
Al      -6.675588334  14.135387343   0.000000000
Al      -4.454080339  12.845161539   0.000000000
Al       4.464058399   2.556124819   0.000000000
Al       6.670663567   1.278473661   0.000000000
Al       2.225211457   6.423672649   0.000000000
Al       4.444779148   5.142041365   0.000000000
Al      -0.004660305  10.296337498   0.000000000
Al       2.225185455   8.986682912   0.000000000
Al      -2.221956994  14.133733960   0.000000000
Al      -0.007945399  12.846248701   0.000000000
Al       8.957166185   2.537052097   0.000000000
Al       6.694013773   6.418602785   0.000000000
Al       8.903894764   5.146185200   0.000000000
Al       4.455133431  10.296319497   0.000000000
Al       6.667022905   8.988129334   0.000000000
Al       2.225342692  14.197096818   0.000000000
Al       4.458259663  12.846366759   0.000000000
Al      13.294799543   2.537020762   0.000000000
Al      15.581058520   1.278543942   0.000000000
Al      11.125890361   6.419755846   0.000000000
Al      13.347991706   5.146162385   0.000000000
Al       8.897743729  10.276079277   0.000000000
Al      11.126033026   8.997586266   0.000000000
Al       6.672214315  14.133771434   0.000000000
Al       8.904642012  12.845170912   0.000000000



     Writing output data file 18al_planar_2x2_vcr.save/
     NEW-OLD atomic charge density approx. for the potential

     negative rho (up, down):  1.149E-06 0.000E+00
     extrapolated charge   92.90418, renormalised to   93.00000

     total cpu time spent up to now is     1219.4 secs

     Self-consistent Calculation

     iteration #  1     ecut=    80.00 Ry     beta= 0.40
     Davidson diagonalization with overlap
     ethr =  1.00E-06,  avg # of iterations =  6.0

     negative rho (up, down):  5.943E-07 0.000E+00

     total cpu time spent up to now is     1257.3 secs

     total energy              =    -140.94275377 Ry
     Harris-Foulkes estimate   =    -141.41778259 Ry
     estimated scf accuracy    <       0.00035905 Ry

     iteration #  2     ecut=    80.00 Ry     beta= 0.40
     Davidson diagonalization with overlap
     ethr =  3.86E-07,  avg # of iterations =  5.0

     negative rho (up, down):  5.319E-07 0.000E+00

     total cpu time spent up to now is     1285.8 secs

     total energy              =    -140.94277201 Ry
     Harris-Foulkes estimate   =    -140.94319760 Ry
     estimated scf accuracy    <       0.00306167 Ry

     iteration #  3     ecut=    80.00 Ry     beta= 0.40
     Davidson diagonalization with overlap
     ethr =  3.86E-07,  avg # of iterations =  7.0

     negative rho (up, down):  3.601E-07 0.000E+00

     total cpu time spent up to now is     1309.9 secs

     total energy              =    -140.94296223 Ry
     Harris-Foulkes estimate   =    -140.94299052 Ry
     estimated scf accuracy    <       0.00012641 Ry

     iteration #  4     ecut=    80.00 Ry     beta= 0.40
     Davidson diagonalization with overlap
     ethr =  1.36E-07,  avg # of iterations =  3.0

     negative rho (up, down):  2.508E-07 0.000E+00

     total cpu time spent up to now is     1329.4 secs

     total energy              =    -140.94296260 Ry
     Harris-Foulkes estimate   =    -140.94297661 Ry
     estimated scf accuracy    <       0.00006268 Ry

     iteration #  5     ecut=    80.00 Ry     beta= 0.40
     Davidson diagonalization with overlap
     ethr =  6.74E-08,  avg # of iterations =  4.0

     negative rho (up, down):  1.099E-07 0.000E+00

     total cpu time spent up to now is     1351.2 secs

     total energy              =    -140.94295767 Ry
     Harris-Foulkes estimate   =    -140.94298206 Ry
     estimated scf accuracy    <       0.00015809 Ry

     iteration #  6     ecut=    80.00 Ry     beta= 0.40
     Davidson diagonalization with overlap
     ethr =  6.74E-08,  avg # of iterations =  3.0

     negative rho (up, down):  4.155E-08 0.000E+00

     total cpu time spent up to now is     1371.9 secs

     total energy              =    -140.94296888 Ry
     Harris-Foulkes estimate   =    -140.94297076 Ry
     estimated scf accuracy    <       0.00001138 Ry

     iteration #  7     ecut=    80.00 Ry     beta= 0.40
     Davidson diagonalization with overlap
     ethr =  1.22E-08,  avg # of iterations =  5.0

     negative rho (up, down):  2.798E-08 0.000E+00

     total cpu time spent up to now is     1395.4 secs

     total energy              =    -140.94296927 Ry
     Harris-Foulkes estimate   =    -140.94297172 Ry
     estimated scf accuracy    <       0.00001786 Ry

     iteration #  8     ecut=    80.00 Ry     beta= 0.40
     Davidson diagonalization with overlap
     ethr =  1.22E-08,  avg # of iterations =  3.0

     negative rho (up, down):  1.045E-08 0.000E+00

     total cpu time spent up to now is     1414.7 secs

     total energy              =    -140.94297021 Ry
     Harris-Foulkes estimate   =    -140.94297050 Ry
     estimated scf accuracy    <       0.00000221 Ry

     iteration #  9     ecut=    80.00 Ry     beta= 0.40
     Davidson diagonalization with overlap
     ethr =  2.37E-09,  avg # of iterations =  5.0

     total cpu time spent up to now is     1441.0 secs

     total energy              =    -140.94296984 Ry
     Harris-Foulkes estimate   =    -140.94297007 Ry
     estimated scf accuracy    <       0.00000157 Ry

     iteration # 10     ecut=    80.00 Ry     beta= 0.40
     Davidson diagonalization with overlap
     ethr =  1.68E-09,  avg # of iterations =  3.0

     total cpu time spent up to now is     1464.5 secs

     total energy              =    -140.94296947 Ry
     Harris-Foulkes estimate   =    -140.94296969 Ry
     estimated scf accuracy    <       0.00000182 Ry

     iteration # 11     ecut=    80.00 Ry     beta= 0.40
     Davidson diagonalization with overlap
     ethr =  1.68E-09,  avg # of iterations =  1.0

     total cpu time spent up to now is     1486.1 secs

     End of self-consistent calculation

          k = 0.0000 0.0000 0.0000 (448403 PWs)   bands (ev):

    -9.9566  -9.4513  -9.4434  -9.4431  -9.4166  -9.4163  -9.1344  -8.4017
    -8.4015  -8.3982  -8.3674  -8.3671  -8.3131  -8.2352  -8.2351  -7.5794
    -6.9328  -6.9328  -6.8234  -6.4775  -6.4773  -6.4585  -6.3817  -6.3815
    -5.5048  -4.8242  -4.8179  -4.8176  -4.7376  -4.7374  -4.4684  -4.4613
    -4.4449  -4.4448  -4.1433  -4.1429  -3.9791  -3.4715  -3.4685  -3.4683
    -3.4550  -3.4548  -3.3875  -3.2895  -3.2645  -3.2644  -3.2156  -2.9601
    -2.9512  -2.9511  -2.9353  -2.5008  -2.5006  -2.4444  -2.4297  -2.4280

     the Fermi energy is    -3.0892 ev

!    total energy              =    -140.94296904 Ry
     Harris-Foulkes estimate   =    -140.94296940 Ry
     estimated scf accuracy    <       0.00000043 Ry

     The total energy is the sum of the following terms:

     one-electron contribution =    -502.78745973 Ry
     hartree contribution      =     260.13426822 Ry
     xc contribution           =     -61.32332374 Ry
     ewald contribution        =     163.11146603 Ry
     smearing contrib. (-TS)   =      -0.07791981 Ry

     convergence has been achieved in  11 iterations

     Forces acting on atoms (cartesian axes, Ry/au):

     atom    1 type  1   force =    -0.00086354    0.00037546    0.00000000
     atom    2 type  1   force =     0.00001125    0.00208182    0.00000000
     atom    3 type  1   force =    -0.00012160   -0.00090039    0.00000000
     atom    4 type  1   force =    -0.00100493   -0.00060045    0.00000000
     atom    5 type  1   force =     0.00158739   -0.00099170    0.00000000
     atom    6 type  1   force =     0.00187821   -0.00106764    0.00000000
     atom    7 type  1   force =     0.00000687    0.00188381    0.00000000
     atom    8 type  1   force =     0.00016848    0.00017976    0.00000000
     atom    9 type  1   force =     0.00083527    0.00040978    0.00000000
     atom   10 type  1   force =     0.00496498    0.00171962    0.00000000
     atom   11 type  1   force =     0.00000418   -0.00000031    0.00000000
     atom   12 type  1   force =     0.00100191   -0.00062746    0.00000000
     atom   13 type  1   force =     0.00073840    0.00046842    0.00000000
     atom   14 type  1   force =    -0.00001231    0.00118975    0.00000000
     atom   15 type  1   force =    -0.00080693   -0.00044888    0.00000000
     atom   16 type  1   force =     0.00396503    0.00345317    0.00000000
     atom   17 type  1   force =     0.01287802   -0.00736406    0.00000000
     atom   18 type  1   force =     0.00009758   -0.00084957    0.00000000
     atom   19 type  1   force =     0.00102259   -0.00522007    0.00000000
     atom   20 type  1   force =    -0.00069444    0.00046169    0.00000000
     atom   21 type  1   force =    -0.00191599   -0.00108942    0.00000000
     atom   22 type  1   force =     0.00003776    0.01486911    0.00000000
     atom   23 type  1   force =    -0.00397335    0.00349923    0.00000000
     atom   24 type  1   force =    -0.01285398   -0.00734507    0.00000000
     atom   25 type  1   force =    -0.00497617    0.00176026    0.00000000
     atom   26 type  1   force =    -0.00001456    0.00081815    0.00000000
     atom   27 type  1   force =    -0.00098574   -0.00525708    0.00000000
     atom   28 type  1   force =    -0.00161241   -0.00097963    0.00000000
     atom   29 type  1   force =     0.00003471   -0.00014146    0.00000000
     atom   30 type  1   force =     0.00072126   -0.00044517    0.00000000
     atom   31 type  1   force =    -0.00011793    0.00015832    0.00000000

     Total force =     0.029397     Total SCF correction =     0.000544


     Computing stress (Cartesian axis) and pressure

          total   stress  (Ry/bohr**3)                   (kbar)     P=   -0.66
  -0.00000674  -0.00000003   0.00000000         -0.99     -0.01      0.00
  -0.00000003  -0.00000665   0.00000000         -0.01     -0.98      0.00
   0.00000000   0.00000000   0.00000001          0.00      0.00      0.00


     number of scf cycles    =   5
     number of bfgs steps    =   4

     enthalpy old            =    -140.9403547778 Ry
     enthalpy new            =    -140.9429690366 Ry

     CASE: enthalpy_new < enthalpy_old

     new trust radius        =       0.0766535802 bohr
     new conv_thr            =       0.0000010000 Ry

     new unit-cell volume =  36982.07326 a.u.^3 (  5480.17778 Ang^3 )
     density =      0.28163 g/cm^3

CELL_PARAMETERS (alat= 33.68096681)
   0.997994036  -0.000004778   0.000000000
  -0.499001156   0.864304046   0.000000000
   0.000000000   0.000000000   1.122132950

ATOMIC_POSITIONS (angstrom)
Al      -0.021185436   2.547369240   0.000000000
Al       2.223504345   1.299546874   0.000000000
Al      -2.251454241   6.410462334   0.000000000
Al       0.007962217   5.139459657   0.000000000
Al      -4.441728151  10.266594951   0.000000000
Al      -2.209751883   8.978176877   0.000000000
Al      -6.670416168  14.127089529   0.000000000
Al      -4.452452481  12.834238347   0.000000000
Al       4.467950817   2.547506756   0.000000000
Al       6.665380975   1.275143000   0.000000000
Al       2.223476634   6.418701855   0.000000000
Al       4.438901867   5.139347027   0.000000000
Al      -0.006716823  10.298020941   0.000000000
Al       2.223407930   8.977014328   0.000000000
Al      -2.219006428  14.123442422   0.000000000
Al      -0.010070870  12.837458792   0.000000000
Al       8.985295579   2.514902370   0.000000000
Al       6.698242705   6.410655024   0.000000000
Al       8.899012893   5.143304834   0.000000000
Al       4.453743394  10.297975489   0.000000000
Al       6.656470499   8.978067143   0.000000000
Al       2.223672758  14.226614400   0.000000000
Al       4.456783776  12.837656440   0.000000000
Al      13.249339769   2.514854586   0.000000000
Al      15.568851154   1.275245241   0.000000000
Al      11.117153436   6.413147102   0.000000000
Al      13.335474842   5.143230042   0.000000000
Al       8.888452143  10.266714076   0.000000000
Al      11.117379059   8.992819300   0.000000000
Al       6.665600921  14.123476579   0.000000000
Al       8.899576960  12.834201136   0.000000000



     Writing output data file 18al_planar_2x2_vcr.save/
     NEW-OLD atomic charge density approx. for the potential

     negative rho (up, down):  1.731E-06 0.000E+00
     extrapolated charge   92.85507, renormalised to   93.00000

     total cpu time spent up to now is     1560.7 secs

     Self-consistent Calculation

     iteration #  1     ecut=    80.00 Ry     beta= 0.40
     Davidson diagonalization with overlap
     ethr =  1.00E-06,  avg # of iterations =  8.0

     negative rho (up, down):  9.096E-07 0.000E+00

     total cpu time spent up to now is     1598.1 secs

     total energy              =    -140.94623151 Ry
     Harris-Foulkes estimate   =    -141.66550441 Ry
     estimated scf accuracy    <       0.00072738 Ry

     iteration #  2     ecut=    80.00 Ry     beta= 0.40
     Davidson diagonalization with overlap
     ethr =  7.82E-07,  avg # of iterations =  6.0

     negative rho (up, down):  8.149E-07 0.000E+00

     total cpu time spent up to now is     1626.6 secs

     total energy              =    -140.94629670 Ry
     Harris-Foulkes estimate   =    -140.94716483 Ry
     estimated scf accuracy    <       0.00627205 Ry

     iteration #  3     ecut=    80.00 Ry     beta= 0.40
     Davidson diagonalization with overlap
     ethr =  7.82E-07,  avg # of iterations = 16.0

     negative rho (up, down):  5.705E-07 0.000E+00

     total cpu time spent up to now is     1654.8 secs

     total energy              =    -140.94663125 Ry
     Harris-Foulkes estimate   =    -140.94669117 Ry
     estimated scf accuracy    <       0.00027155 Ry

     iteration #  4     ecut=    80.00 Ry     beta= 0.40
     Davidson diagonalization with overlap
     ethr =  2.92E-07,  avg # of iterations =  3.0

     negative rho (up, down):  3.145E-07 0.000E+00

     total cpu time spent up to now is     1673.7 secs

     total energy              =    -140.94663499 Ry
     Harris-Foulkes estimate   =    -140.94665592 Ry
     estimated scf accuracy    <       0.00011453 Ry

     iteration #  5     ecut=    80.00 Ry     beta= 0.40
     Davidson diagonalization with overlap
     ethr =  1.23E-07,  avg # of iterations =  4.0

     negative rho (up, down):  1.729E-07 0.000E+00

     total cpu time spent up to now is     1695.8 secs

     total energy              =    -140.94662163 Ry
     Harris-Foulkes estimate   =    -140.94665997 Ry
     estimated scf accuracy    <       0.00020324 Ry

     iteration #  6     ecut=    80.00 Ry     beta= 0.40
     Davidson diagonalization with overlap
     ethr =  1.23E-07,  avg # of iterations =  4.0

     negative rho (up, down):  5.622E-08 0.000E+00

     total cpu time spent up to now is     1722.5 secs

     total energy              =    -140.94664008 Ry
     Harris-Foulkes estimate   =    -140.94664924 Ry
     estimated scf accuracy    <       0.00005797 Ry

     iteration #  7     ecut=    80.00 Ry     beta= 0.40
     Davidson diagonalization with overlap
     ethr =  6.23E-08,  avg # of iterations =  3.0

     negative rho (up, down):  3.892E-08 0.000E+00

     total cpu time spent up to now is     1743.5 secs

     total energy              =    -140.94664434 Ry
     Harris-Foulkes estimate   =    -140.94664727 Ry
     estimated scf accuracy    <       0.00001569 Ry

     iteration #  8     ecut=    80.00 Ry     beta= 0.40
     Davidson diagonalization with overlap
     ethr =  1.69E-08,  avg # of iterations =  3.0

     negative rho (up, down):  1.807E-08 0.000E+00

     total cpu time spent up to now is     1767.5 secs

     total energy              =    -140.94664647 Ry
     Harris-Foulkes estimate   =    -140.94664747 Ry
     estimated scf accuracy    <       0.00000546 Ry

     iteration #  9     ecut=    80.00 Ry     beta= 0.40
     Davidson diagonalization with overlap
     ethr =  5.87E-09,  avg # of iterations =  4.0

     total cpu time spent up to now is     1792.3 secs

     total energy              =    -140.94664672 Ry
     Harris-Foulkes estimate   =    -140.94664718 Ry
     estimated scf accuracy    <       0.00000254 Ry

     iteration # 10     ecut=    80.00 Ry     beta= 0.40
     Davidson diagonalization with overlap
     ethr =  2.73E-09,  avg # of iterations =  4.0

     total cpu time spent up to now is     1814.7 secs

     total energy              =    -140.94664674 Ry
     Harris-Foulkes estimate   =    -140.94664729 Ry
     estimated scf accuracy    <       0.00000412 Ry

     iteration # 11     ecut=    80.00 Ry     beta= 0.40
     Davidson diagonalization with overlap
     ethr =  2.73E-09,  avg # of iterations =  1.0

     total cpu time spent up to now is     1833.9 secs

     End of self-consistent calculation

          k = 0.0000 0.0000 0.0000 (448403 PWs)   bands (ev):

    -9.9597  -9.4534  -9.4513  -9.4501  -9.4115  -9.4110  -9.1299  -8.4067
    -8.4028  -8.4015  -8.3603  -8.3581  -8.3186  -8.2195  -8.2189  -7.5778
    -6.9342  -6.9338  -6.8256  -6.4773  -6.4764  -6.4445  -6.3861  -6.3852
    -5.5295  -4.8180  -4.8058  -4.8055  -4.7359  -4.7358  -4.4637  -4.4573
    -4.4465  -4.4463  -4.1561  -4.1560  -3.9804  -3.4731  -3.4715  -3.4713
    -3.4505  -3.4500  -3.3780  -3.3415  -3.2596  -3.2590  -3.2133  -2.9660
    -2.9428  -2.9424  -2.9165  -2.4913  -2.4908  -2.4502  -2.4413  -2.4180

     the Fermi energy is    -3.0885 ev

!    total energy              =    -140.94664666 Ry
     Harris-Foulkes estimate   =    -140.94664701 Ry
     estimated scf accuracy    <       0.00000041 Ry

     The total energy is the sum of the following terms:

     one-electron contribution =    -503.27471170 Ry
     hartree contribution      =     260.37326835 Ry
     xc contribution           =     -61.31690813 Ry
     ewald contribution        =     163.34761682 Ry
     smearing contrib. (-TS)   =      -0.07591199 Ry

     convergence has been achieved in  11 iterations

     Forces acting on atoms (cartesian axes, Ry/au):

     atom    1 type  1   force =     0.00078171    0.00236136    0.00000000
     atom    2 type  1   force =    -0.00001321    0.00216479    0.00000000
     atom    3 type  1   force =     0.00231590   -0.00061032    0.00000000
     atom    4 type  1   force =    -0.00225963   -0.00135553    0.00000000
     atom    5 type  1   force =     0.00210221   -0.00103444    0.00000000
     atom    6 type  1   force =     0.00184146   -0.00110286    0.00000000
     atom    7 type  1   force =     0.00017244    0.00237572    0.00000000
     atom    8 type  1   force =     0.00064066    0.00043509    0.00000000
     atom    9 type  1   force =    -0.00067745    0.00229562    0.00000000
     atom   10 type  1   force =     0.00872753    0.00369426    0.00000000
     atom   11 type  1   force =     0.00000511    0.00001284    0.00000000
     atom   12 type  1   force =     0.00236984   -0.00125725    0.00000000
     atom   13 type  1   force =     0.00181735   -0.00163160    0.00000000
     atom   14 type  1   force =     0.00006745    0.00273720    0.00000000
     atom   15 type  1   force =    -0.00183661   -0.00092187    0.00000000
     atom   16 type  1   force =     0.00780815    0.00564581    0.00000000
     atom   17 type  1   force =     0.01312571   -0.00760260    0.00000000
     atom   18 type  1   force =    -0.00243624   -0.00055025    0.00000000
     atom   19 type  1   force =     0.00122537   -0.00935379    0.00000000
     atom   20 type  1   force =    -0.00178567   -0.00180371    0.00000000
     atom   21 type  1   force =    -0.00207203   -0.00126006    0.00000000
     atom   22 type  1   force =    -0.00009853    0.01501841    0.00000000
     atom   23 type  1   force =    -0.00765999    0.00569856    0.00000000
     atom   24 type  1   force =    -0.01299544   -0.00749800    0.00000000
     atom   25 type  1   force =    -0.00892785    0.00364220    0.00000000
     atom   26 type  1   force =    -0.00004082    0.00194310    0.00000000
     atom   27 type  1   force =    -0.00121634   -0.00952172    0.00000000
     atom   28 type  1   force =    -0.00177403   -0.00118105    0.00000000
     atom   29 type  1   force =    -0.00018961   -0.00086535    0.00000000
     atom   30 type  1   force =     0.00157500   -0.00079709    0.00000000
     atom   31 type  1   force =    -0.00059246    0.00032251    0.00000000

     Total force =     0.036475     Total SCF correction =     0.000533


     Computing stress (Cartesian axis) and pressure

          total   stress  (Ry/bohr**3)                   (kbar)     P=   -0.70
  -0.00000716   0.00000002   0.00000000         -1.05      0.00      0.00
   0.00000002  -0.00000721   0.00000000          0.00     -1.06      0.00
   0.00000000   0.00000000   0.00000000          0.00      0.00      0.00


     number of scf cycles    =   6
     number of bfgs steps    =   5

     enthalpy old            =    -140.9429690366 Ry
     enthalpy new            =    -140.9466466619 Ry

     CASE: enthalpy_new < enthalpy_old

     new trust radius        =       0.1148912060 bohr
     new conv_thr            =       0.0000010000 Ry

     new unit-cell volume =  36895.34038 a.u.^3 (  5467.32530 Ang^3 )
     density =      0.28229 g/cm^3

CELL_PARAMETERS (alat= 33.68096681)
   0.996820228  -0.000006243   0.000000000
  -0.498415521   0.863293132   0.000000000
   0.000000000   0.000000000   1.122132950

ATOMIC_POSITIONS (angstrom)
Al      -0.031627789   2.535033456   0.000000000
Al       2.220905510   1.307104488   0.000000000
Al      -2.262218727   6.398553637   0.000000000
Al       0.011112314   5.135221737   0.000000000
Al      -4.432992599  10.252534529   0.000000000
Al      -2.199350358   8.963106783   0.000000000
Al      -6.662518380  14.114629886   0.000000000
Al      -4.449851816  12.817816698   0.000000000
Al       4.473184393   2.535187996   0.000000000
Al       6.658731518   1.270852977   0.000000000
Al       2.220883767   6.411217611   0.000000000
Al       4.430557471   5.135116506   0.000000000
Al      -0.009414364  10.299754433   0.000000000
Al       2.220806679   8.962978174   0.000000000
Al      -2.214936530  14.107759098   0.000000000
Al      -0.011829223  12.824903046   0.000000000
Al       9.027367625   2.481674766   0.000000000
Al       6.703654678   6.398868334   0.000000000
Al       8.891741105   5.137582966   0.000000000
Al       4.451289367  10.299569613   0.000000000
Al       6.640579231   8.962834225   0.000000000
Al       2.221102898  14.270585513   0.000000000
Al       4.453275277  12.825230277   0.000000000
Al      13.181313637   2.481659882   0.000000000
Al      15.549109988   1.270956166   0.000000000
Al      11.104025615   6.403627394   0.000000000
Al      13.316608645   5.137359644   0.000000000
Al       8.874606115  10.252604704   0.000000000
Al      11.104250305   8.985367340   0.000000000
Al       6.655975871  14.107882004   0.000000000
Al       8.891855793  12.817677173   0.000000000



     Writing output data file 18al_planar_2x2_vcr.save/
     NEW-OLD atomic charge density approx. for the potential

     negative rho (up, down):  2.654E-06 0.000E+00
     extrapolated charge   92.78156, renormalised to   93.00000

     total cpu time spent up to now is     1913.8 secs

     Self-consistent Calculation

     iteration #  1     ecut=    80.00 Ry     beta= 0.40
     Davidson diagonalization with overlap
     ethr =  1.00E-06,  avg # of iterations = 13.0

     negative rho (up, down):  1.423E-06 0.000E+00

     total cpu time spent up to now is     1959.9 secs

     total energy              =    -140.95090280 Ry
     Harris-Foulkes estimate   =    -142.03693675 Ry
     estimated scf accuracy    <       0.00167050 Ry

     iteration #  2     ecut=    80.00 Ry     beta= 0.40
     Davidson diagonalization with overlap
     ethr =  1.80E-06,  avg # of iterations =  7.0

     negative rho (up, down):  1.279E-06 0.000E+00

     total cpu time spent up to now is     1992.9 secs

     total energy              =    -140.95098149 Ry
     Harris-Foulkes estimate   =    -140.95331911 Ry
     estimated scf accuracy    <       0.01718843 Ry

     iteration #  3     ecut=    80.00 Ry     beta= 0.40
     Davidson diagonalization with overlap
     ethr =  1.80E-06,  avg # of iterations =  5.0

     negative rho (up, down):  9.146E-07 0.000E+00

     total cpu time spent up to now is     2018.4 secs

     total energy              =    -140.95201292 Ry
     Harris-Foulkes estimate   =    -140.95214019 Ry
     estimated scf accuracy    <       0.00057319 Ry

     iteration #  4     ecut=    80.00 Ry     beta= 0.40
     Davidson diagonalization with overlap
     ethr =  6.16E-07,  avg # of iterations =  2.0

     negative rho (up, down):  6.158E-07 0.000E+00

     total cpu time spent up to now is     2038.9 secs

     total energy              =    -140.95201788 Ry
     Harris-Foulkes estimate   =    -140.95207164 Ry
     estimated scf accuracy    <       0.00028864 Ry

     iteration #  5     ecut=    80.00 Ry     beta= 0.40
     Davidson diagonalization with overlap
     ethr =  3.10E-07,  avg # of iterations =  4.0

     negative rho (up, down):  3.307E-07 0.000E+00

     total cpu time spent up to now is     2060.3 secs

     total energy              =    -140.95198580 Ry
     Harris-Foulkes estimate   =    -140.95208798 Ry
     estimated scf accuracy    <       0.00060863 Ry

     iteration #  6     ecut=    80.00 Ry     beta= 0.40
     Davidson diagonalization with overlap
     ethr =  3.10E-07,  avg # of iterations =  4.0

     negative rho (up, down):  8.278E-08 0.000E+00

     total cpu time spent up to now is     2081.8 secs

     total energy              =    -140.95203238 Ry
     Harris-Foulkes estimate   =    -140.95204853 Ry
     estimated scf accuracy    <       0.00008720 Ry

     iteration #  7     ecut=    80.00 Ry     beta= 0.40
     Davidson diagonalization with overlap
     ethr =  9.38E-08,  avg # of iterations =  4.0

     negative rho (up, down):  5.999E-08 0.000E+00

     total cpu time spent up to now is     2103.8 secs

     total energy              =    -140.95204100 Ry
     Harris-Foulkes estimate   =    -140.95205030 Ry
     estimated scf accuracy    <       0.00005936 Ry

     iteration #  8     ecut=    80.00 Ry     beta= 0.40
     Davidson diagonalization with overlap
     ethr =  6.38E-08,  avg # of iterations =  1.0

     negative rho (up, down):  3.031E-08 0.000E+00

     total cpu time spent up to now is     2123.6 secs

     total energy              =    -140.95204538 Ry
     Harris-Foulkes estimate   =    -140.95204700 Ry
     estimated scf accuracy    <       0.00000721 Ry

     iteration #  9     ecut=    80.00 Ry     beta= 0.40
     Davidson diagonalization with overlap
     ethr =  7.76E-09,  avg # of iterations = 17.0

     negative rho (up, down):  2.862E-08 0.000E+00

     total cpu time spent up to now is     2155.2 secs

     total energy              =    -140.95194004 Ry
     Harris-Foulkes estimate   =    -140.95194154 Ry
     estimated scf accuracy    <       0.00005146 Ry

     iteration # 10     ecut=    80.00 Ry     beta= 0.40
     Davidson diagonalization with overlap
     ethr =  7.76E-09,  avg # of iterations =  1.0

     negative rho (up, down):  4.007E-08 0.000E+00

     total cpu time spent up to now is     2174.8 secs

     total energy              =    -140.95193986 Ry
     Harris-Foulkes estimate   =    -140.95194004 Ry
     estimated scf accuracy    <       0.00004188 Ry

     iteration # 11     ecut=    80.00 Ry     beta= 0.40
     Davidson diagonalization with overlap
     ethr =  7.76E-09,  avg # of iterations =  1.0

     negative rho (up, down):  2.551E-08 0.000E+00

     total cpu time spent up to now is     2195.6 secs

     total energy              =    -140.95194422 Ry
     Harris-Foulkes estimate   =    -140.95193988 Ry
     estimated scf accuracy    <       0.00004171 Ry

     iteration # 12     ecut=    80.00 Ry     beta= 0.40
     Davidson diagonalization with overlap
     ethr =  7.76E-09,  avg # of iterations =  2.0

     negative rho (up, down):  1.312E-08 0.000E+00

     total cpu time spent up to now is     2216.3 secs

     total energy              =    -140.95194663 Ry
     Harris-Foulkes estimate   =    -140.95194509 Ry
     estimated scf accuracy    <       0.00007454 Ry

     iteration # 13     ecut=    80.00 Ry     beta= 0.40
     Davidson diagonalization with overlap
     ethr =  7.76E-09,  avg # of iterations =  3.0

     negative rho (up, down):  3.994E-08 0.000E+00

     total cpu time spent up to now is     2237.1 secs

     total energy              =    -140.95194132 Ry
     Harris-Foulkes estimate   =    -140.95194732 Ry
     estimated scf accuracy    <       0.00009201 Ry

     iteration # 14     ecut=    80.00 Ry     beta= 0.40
     Davidson diagonalization with overlap
     ethr =  7.76E-09,  avg # of iterations =  3.0

     negative rho (up, down):  3.592E-08 0.000E+00

     total cpu time spent up to now is     2258.2 secs

     total energy              =    -140.95194145 Ry
     Harris-Foulkes estimate   =    -140.95194254 Ry
     estimated scf accuracy    <       0.00006266 Ry

     iteration # 15     ecut=    80.00 Ry     beta= 0.40
     Davidson diagonalization with overlap
     ethr =  7.76E-09,  avg # of iterations =  1.0

     negative rho (up, down):  1.900E-08 0.000E+00

     total cpu time spent up to now is     2278.1 secs

     total energy              =    -140.95193473 Ry
     Harris-Foulkes estimate   =    -140.95194155 Ry
     estimated scf accuracy    <       0.00005577 Ry

     iteration # 16     ecut=    80.00 Ry     beta= 0.40
     Davidson diagonalization with overlap
     ethr =  7.76E-09,  avg # of iterations =  4.0

     total cpu time spent up to now is     2302.2 secs

     total energy              =    -140.95193324 Ry
     Harris-Foulkes estimate   =    -140.95193641 Ry
     estimated scf accuracy    <       0.00002026 Ry

     iteration # 17     ecut=    80.00 Ry     beta= 0.40
     Davidson diagonalization with overlap
     ethr =  7.76E-09,  avg # of iterations =  4.0

     total cpu time spent up to now is     2325.0 secs

     total energy              =    -140.95193351 Ry
     Harris-Foulkes estimate   =    -140.95193499 Ry
     estimated scf accuracy    <       0.00000997 Ry

     iteration # 18     ecut=    80.00 Ry     beta= 0.40
     Davidson diagonalization with overlap
     ethr =  7.76E-09,  avg # of iterations =  2.0

     total cpu time spent up to now is     2345.0 secs

     total energy              =    -140.95193395 Ry
     Harris-Foulkes estimate   =    -140.95193421 Ry
     estimated scf accuracy    <       0.00000208 Ry

     iteration # 19     ecut=    80.00 Ry     beta= 0.40
     Davidson diagonalization with overlap
     ethr =  2.24E-09,  avg # of iterations =  4.0

     total cpu time spent up to now is     2366.7 secs

     total energy              =    -140.95193393 Ry
     Harris-Foulkes estimate   =    -140.95193413 Ry
     estimated scf accuracy    <       0.00000120 Ry

     iteration # 20     ecut=    80.00 Ry     beta= 0.40
     Davidson diagonalization with overlap
     ethr =  1.29E-09,  avg # of iterations =  3.0

     total cpu time spent up to now is     2387.4 secs

     End of self-consistent calculation

          k = 0.0000 0.0000 0.0000 (448403 PWs)   bands (ev):

    -9.9646  -9.4613  -9.4611  -9.4567  -9.4052  -9.4050  -9.1261  -8.4189
    -8.4038  -8.4031  -8.3510  -8.3506  -8.3259  -8.1936  -8.1932  -7.5793
    -6.9367  -6.9364  -6.8300  -6.4759  -6.4755  -6.4252  -6.3903  -6.3900
    -5.5676  -4.8091  -4.7921  -4.7918  -4.7297  -4.7295  -4.4570  -4.4513
    -4.4490  -4.4489  -4.1758  -4.1754  -3.9824  -3.4775  -3.4773  -3.4723
    -3.4439  -3.4437  -3.4228  -3.3637  -3.2520  -3.2520  -3.2122  -2.9753
    -2.9300  -2.9299  -2.8857  -2.4780  -2.4774  -2.4579  -2.4391  -2.4390

     the Fermi energy is    -3.0874 ev

!    total energy              =    -140.95193396 Ry
     Harris-Foulkes estimate   =    -140.95193402 Ry
     estimated scf accuracy    <       0.00000019 Ry

     The total energy is the sum of the following terms:

     one-electron contribution =    -504.02917880 Ry
     hartree contribution      =     260.74267056 Ry
     xc contribution           =     -61.30895033 Ry
     ewald contribution        =     163.71598893 Ry
     smearing contrib. (-TS)   =      -0.07246432 Ry

     convergence has been achieved in  20 iterations

     Forces acting on atoms (cartesian axes, Ry/au):

     atom    1 type  1   force =     0.00288244    0.00510171    0.00000000
     atom    2 type  1   force =    -0.00002183    0.00244889    0.00000000
     atom    3 type  1   force =     0.00585623   -0.00012189    0.00000000
     atom    4 type  1   force =    -0.00414382   -0.00234962    0.00000000
     atom    5 type  1   force =     0.00262538   -0.00125778    0.00000000
     atom    6 type  1   force =     0.00215798   -0.00118890    0.00000000
     atom    7 type  1   force =     0.00002771    0.00298274    0.00000000
     atom    8 type  1   force =     0.00145013    0.00064529    0.00000000
     atom    9 type  1   force =    -0.00287690    0.00508332    0.00000000
     atom   10 type  1   force =     0.01419888    0.00619549    0.00000000
     atom   11 type  1   force =    -0.00000767    0.00002995    0.00000000
     atom   12 type  1   force =     0.00416128   -0.00230858    0.00000000
     atom   13 type  1   force =     0.00293433   -0.00497763    0.00000000
     atom   14 type  1   force =    -0.00001775    0.00468574    0.00000000
     atom   15 type  1   force =    -0.00280679   -0.00157121    0.00000000
     atom   16 type  1   force =     0.01251600    0.00908896    0.00000000
     atom   17 type  1   force =     0.01332502   -0.00779565    0.00000000
     atom   18 type  1   force =    -0.00578785   -0.00027235    0.00000000
     atom   19 type  1   force =     0.00146076   -0.01528043    0.00000000
     atom   20 type  1   force =    -0.00299829   -0.00479367    0.00000000
     atom   21 type  1   force =    -0.00199388   -0.00109317    0.00000000
     atom   22 type  1   force =    -0.00009864    0.01542264    0.00000000
     atom   23 type  1   force =    -0.01249621    0.00885248    0.00000000
     atom   24 type  1   force =    -0.01337319   -0.00778947    0.00000000
     atom   25 type  1   force =    -0.01412094    0.00615591    0.00000000
     atom   26 type  1   force =     0.00006533    0.00354073    0.00000000
[...]


     bfgs converged in 201 scf cycles and 198 bfgs steps
     (criteria: energy <  1.0E-05 Ry, force <  1.0E-04Ry/Bohr, cell <  5.0E-05kbar)

     End of BFGS Geometry Optimization

     Final enthalpy =    -142.2701674944 Ry
Begin final coordinates
     new unit-cell volume =  26092.77878 a.u.^3 (  3866.55084 Ang^3 )
     density =      0.39916 g/cm^3

CELL_PARAMETERS (alat= 33.68096681)
   0.838294129   0.000049044   0.000000000
  -0.419187666   0.725957628   0.000000000
   0.000000000   0.000000000   1.122132950

ATOMIC_POSITIONS (angstrom)
Al       0.903607343   2.052290582   0.000000000
Al       1.867452941   4.556779221   0.000000000
Al      -2.470377354   6.226151789   0.000000000
Al      -0.783328605   4.139214772   0.000000000
Al      -4.157430636   8.313019654   0.000000000
Al       0.180404553   6.643672609   0.000000000
Al      -4.880681544  12.904301035   0.000000000
Al      -5.844433223  10.399848326   0.000000000
Al       3.554375859   2.469913119   0.000000000
Al       5.241379821   0.383038738   0.000000000
Al       2.831194903   7.061209603   0.000000000
Al       6.205262349   2.887463472   0.000000000
Al      -1.506636986   8.730585354   0.000000000
Al       1.144133654   9.148149593   0.000000000
Al      -3.193626663  10.817460673   0.000000000
Al      -0.542816073  11.235090534   0.000000000
Al       7.892282739   0.800622186   0.000000000
Al       7.169142175   5.391870313   0.000000000
Al       8.856137032   3.304986267   0.000000000
Al       3.794961963   9.565648876   0.000000000
Al       4.518250998   4.974325503   0.000000000
Al       2.108001604  11.652597227   0.000000000
Al       4.758766695  12.070056634   0.000000000
Al      10.543104275   1.218117246   0.000000000
Al      13.193933937   1.635603417   0.000000000
Al       9.819955033   5.809456528   0.000000000
Al      11.506974939   3.722542415   0.000000000
Al       5.482052149   7.478738364   0.000000000
Al       8.132861044   7.896331346   0.000000000
Al       7.409578218  12.487564120   0.000000000
Al       6.445838480   9.983108823   0.000000000
End final coordinates



     Writing output data file 18al_planar_2x2_vcr.save/

     A final scf calculation at the relaxed structure.
     The G-vectors are recalculated for the final unit cell
     Results may differ from those at the preceding step.
 
     Parallelization info
     --------------------
     sticks:   dense  smooth     PW     G-vecs:    dense   smooth      PW
     Min        2198    2198    550               315304   315304   39396
     Max        2199    2199    551               315313   315313   39401
     Sum       17587   17587   4405              2522465  2522465  315191
 


     bravais-lattice index     =            4
     lattice parameter (alat)  =      33.6810  a.u.
     unit-cell volume          =   26092.7788 (a.u.)^3
     number of atoms/cell      =           31
     number of atomic types    =            1
     number of electrons       =        93.00
     number of Kohn-Sham states=           56
     kinetic-energy cutoff     =      80.0000  Ry
     charge density cutoff     =     320.0000  Ry
     convergence threshold     =      1.0E-08
     mixing beta               =       0.4000
     number of iterations used =            8  plain     mixing
     Exchange-correlation      = PBE ( 1  4  3  4 0 0)

     celldm(1)=  33.680967  celldm(2)=   0.000000  celldm(3)=   1.122133
     celldm(4)=   0.000000  celldm(5)=   0.000000  celldm(6)=   0.000000

     crystal axes: (cart. coord. in units of alat)
               a(1) = (   0.838294   0.000049   0.000000 )  
               a(2) = (  -0.419188   0.725958   0.000000 )  
               a(3) = (   0.000000   0.000000   1.122133 )  

     reciprocal axes: (cart. coord. in units 2 pi/alat)
               b(1) = (  1.192858  0.688789  0.000000 )  
               b(2) = ( -0.000081  1.377444  0.000000 )  
               b(3) = (  0.000000  0.000000  0.891160 )  


     PseudoPot. # 1 for Al read from file:
     ./Al.upf
     MD5 check sum: 4974d48a734c9d7d1eb6780a1419d19d
     Pseudo is Norm-conserving + core correction, Zval =  3.0
     Generated using ONCVPSP code by D. R. Hamann
     Using radial grid of 1876 points,  6 beta functions with: 
                l(1) =   0
                l(2) =   0
                l(3) =   1
                l(4) =   1
                l(5) =   2
                l(6) =   2

     atomic species   valence    mass     pseudopotential
        Al             3.00    29.98200     Al( 1.00)

      2 Sym. Ops. (no inversion) found



   Cartesian axes

     site n.     atom                  positions (alat units)
         1           Al  tau(   1) = (   0.0506984   0.1151471   0.0000000  )
         2           Al  tau(   2) = (   0.1047765   0.2556656   0.0000000  )
         3           Al  tau(   3) = (  -0.1386046   0.3493285   0.0000000  )
         4           Al  tau(   4) = (  -0.0439499   0.2322375   0.0000000  )
         5           Al  tau(   5) = (  -0.2332595   0.4664157   0.0000000  )
         6           Al  tau(   6) = (   0.0101219   0.3727542   0.0000000  )
         7           Al  tau(   7) = (  -0.2738387   0.7240171   0.0000000  )
         8           Al  tau(   8) = (  -0.3279116   0.5835006   0.0000000  )
         9           Al  tau(   9) = (   0.1994241   0.1385785   0.0000000  )
        10           Al  tau(  10) = (   0.2940763   0.0214910   0.0000000  )
        11           Al  tau(  11) = (   0.1588489   0.3961808   0.0000000  )
        12           Al  tau(  12) = (   0.3481565   0.1620059   0.0000000  )
        13           Al  tau(  13) = (  -0.0845324   0.4898439   0.0000000  )
        14           Al  tau(  14) = (   0.0641935   0.5132720   0.0000000  )
        15           Al  tau(  15) = (  -0.1791837   0.6069315   0.0000000  )
        16           Al  tau(  16) = (  -0.0304556   0.6303633   0.0000000  )
        17           Al  tau(  17) = (   0.4428095   0.0449202   0.0000000  )
        18           Al  tau(  18) = (   0.4022365   0.3025198   0.0000000  )
        19           Al  tau(  19) = (   0.4968882   0.1854317   0.0000000  )
        20           Al  tau(  20) = (   0.2129226   0.5366965   0.0000000  )
        21           Al  tau(  21) = (   0.2535039   0.2790927   0.0000000  )
        22           Al  tau(  22) = (   0.1182729   0.6537882   0.0000000  )
        23           Al  tau(  23) = (   0.2669984   0.6772104   0.0000000  )
        24           Al  tau(  24) = (   0.5915382   0.0683445   0.0000000  )
        25           Al  tau(  25) = (   0.7402674   0.0917682   0.0000000  )
        26           Al  tau(  26) = (   0.5509648   0.3259491   0.0000000  )
        27           Al  tau(  27) = (   0.6456178   0.2088594   0.0000000  )
        28           Al  tau(  28) = (   0.3075796   0.4196069   0.0000000  )
        29           Al  tau(  29) = (   0.4563076   0.4430367   0.0000000  )
        30           Al  tau(  30) = (   0.4157266   0.7006354   0.0000000  )
        31           Al  tau(  31) = (   0.3616544   0.5601188   0.0000000  )

     number of k points=     1  Methfessel-Paxton smearing, width (Ry)=  0.0500
                       cart. coord. in units 2pi/alat
        k(    1) = (   0.0000000   0.0000000   0.0000000), wk =   2.0000000

     Dense  grid:  2522465 G-vectors     FFT dimensions: ( 162, 162, 216)

     Estimated max dynamical RAM per process >     839.96 MB

     Estimated total dynamical RAM >       6.56 GB

     Initial potential from superposition of free atoms

     starting charge   92.92414, renormalised to   93.00000

     negative rho (up, down):  7.270E-05 0.000E+00
     Starting wfcs are  124 randomized atomic wfcs

     total cpu time spent up to now is    69463.7 secs

     Self-consistent Calculation

     iteration #  1     ecut=    80.00 Ry     beta= 0.40
     Davidson diagonalization with overlap
     ethr =  1.00E-06,  avg # of iterations =  9.0

     negative rho (up, down):  1.172E-05 0.000E+00

     total cpu time spent up to now is    69507.0 secs

     total energy              =    -142.21848436 Ry
     Harris-Foulkes estimate   =    -142.58378689 Ry
     estimated scf accuracy    <       1.01218163 Ry

     iteration #  2     ecut=    80.00 Ry     beta= 0.40
     Davidson diagonalization with overlap
     ethr =  1.09E-03,  avg # of iterations =  1.0

     negative rho (up, down):  3.416E-06 0.000E+00

     total cpu time spent up to now is    69521.6 secs

     total energy              =    -142.25980746 Ry
     Harris-Foulkes estimate   =    -142.29576960 Ry
     estimated scf accuracy    <       0.10990806 Ry

     iteration #  3     ecut=    80.00 Ry     beta= 0.40
     Davidson diagonalization with overlap
     ethr =  1.18E-04,  avg # of iterations =  1.0

     negative rho (up, down):  2.315E-07 0.000E+00

     total cpu time spent up to now is    69535.8 secs

     total energy              =    -142.26912682 Ry
     Harris-Foulkes estimate   =    -142.27101231 Ry
     estimated scf accuracy    <       0.00855858 Ry

     iteration #  4     ecut=    80.00 Ry     beta= 0.40
     Davidson diagonalization with overlap
     ethr =  9.20E-06,  avg # of iterations =  2.0

     negative rho (up, down):  7.038E-08 0.000E+00

     total cpu time spent up to now is    69551.1 secs

     total energy              =    -142.26976376 Ry
     Harris-Foulkes estimate   =    -142.26981272 Ry
     estimated scf accuracy    <       0.00012978 Ry

     iteration #  5     ecut=    80.00 Ry     beta= 0.40
     Davidson diagonalization with overlap
     ethr =  1.40E-07,  avg # of iterations =  6.0

     negative rho (up, down):  4.347E-08 0.000E+00

     total cpu time spent up to now is    69575.3 secs

     total energy              =    -142.26987357 Ry
     Harris-Foulkes estimate   =    -142.26989812 Ry
     estimated scf accuracy    <       0.00012208 Ry

     iteration #  6     ecut=    80.00 Ry     beta= 0.40
     Davidson diagonalization with overlap
     ethr =  1.31E-07,  avg # of iterations =  4.0

     negative rho (up, down):  3.776E-08 0.000E+00

     total cpu time spent up to now is    69591.5 secs

     total energy              =    -142.26988287 Ry
     Harris-Foulkes estimate   =    -142.26988395 Ry
     estimated scf accuracy    <       0.00001500 Ry

     iteration #  7     ecut=    80.00 Ry     beta= 0.40
     Davidson diagonalization with overlap
     ethr =  1.61E-08,  avg # of iterations =  4.0

     total cpu time spent up to now is    69608.0 secs

     total energy              =    -142.26988341 Ry
     Harris-Foulkes estimate   =    -142.26988425 Ry
     estimated scf accuracy    <       0.00000939 Ry

     iteration #  8     ecut=    80.00 Ry     beta= 0.40
     Davidson diagonalization with overlap
     ethr =  1.01E-08,  avg # of iterations =  6.0

     total cpu time spent up to now is    69630.0 secs

     total energy              =    -142.26988551 Ry
     Harris-Foulkes estimate   =    -142.26988942 Ry
     estimated scf accuracy    <       0.00002874 Ry

     iteration #  9     ecut=    80.00 Ry     beta= 0.40
     Davidson diagonalization with overlap
     ethr =  1.01E-08,  avg # of iterations =  4.0

     total cpu time spent up to now is    69647.3 secs

     total energy              =    -142.26988285 Ry
     Harris-Foulkes estimate   =    -142.26988623 Ry
     estimated scf accuracy    <       0.00001327 Ry

     iteration # 10     ecut=    80.00 Ry     beta= 0.40
     Davidson diagonalization with overlap
     ethr =  1.01E-08,  avg # of iterations =  4.0

     total cpu time spent up to now is    69662.9 secs

     total energy              =    -142.26988356 Ry
     Harris-Foulkes estimate   =    -142.26988378 Ry
     estimated scf accuracy    <       0.00000102 Ry

     iteration # 11     ecut=    80.00 Ry     beta= 0.40
     Davidson diagonalization with overlap
     ethr =  1.09E-09,  avg # of iterations =  6.0

     total cpu time spent up to now is    69683.4 secs

     total energy              =    -142.26988390 Ry
     Harris-Foulkes estimate   =    -142.26988394 Ry
     estimated scf accuracy    <       0.00000065 Ry

     iteration # 12     ecut=    80.00 Ry     beta= 0.40
     Davidson diagonalization with overlap
     ethr =  6.96E-10,  avg # of iterations =  1.0

     total cpu time spent up to now is    69698.0 secs

     total energy              =    -142.26988387 Ry
     Harris-Foulkes estimate   =    -142.26988393 Ry
     estimated scf accuracy    <       0.00000051 Ry

     iteration # 13     ecut=    80.00 Ry     beta= 0.40
     Davidson diagonalization with overlap
     ethr =  5.51E-10,  avg # of iterations =  1.0

     total cpu time spent up to now is    69713.9 secs

     total energy              =    -142.26988387 Ry
     Harris-Foulkes estimate   =    -142.26988389 Ry
     estimated scf accuracy    <       0.00000023 Ry

     iteration # 14     ecut=    80.00 Ry     beta= 0.40
     Davidson diagonalization with overlap
     ethr =  2.48E-10,  avg # of iterations =  4.0

     total cpu time spent up to now is    69730.7 secs

     total energy              =    -142.26988387 Ry
     Harris-Foulkes estimate   =    -142.26988388 Ry
     estimated scf accuracy    <       0.00000007 Ry

     iteration # 15     ecut=    80.00 Ry     beta= 0.40
     Davidson diagonalization with overlap
     ethr =  7.03E-11,  avg # of iterations =  5.0

     total cpu time spent up to now is    69748.8 secs

     End of self-consistent calculation

          k = 0.0000 0.0000 0.0000 (315191 PWs)   bands (ev):

   -11.6237 -10.7478 -10.7478 -10.7477 -10.7477 -10.7477 -10.7477  -9.0217
    -9.0217  -9.0216  -9.0216  -9.0216  -9.0216  -8.1738  -8.1738  -8.1738
    -8.1738  -8.1737  -8.1737  -5.7782  -5.7782  -5.7781  -5.7781  -5.7781
    -5.7781  -5.7076  -5.7076  -5.7076  -5.7075  -5.7075  -5.7075  -4.8692
    -4.0234  -4.0234  -4.0234  -4.0233  -4.0233  -4.0233  -3.7523  -3.7522
    -3.7522  -3.7522  -3.7522  -3.7521  -2.3346  -2.3346  -2.3345  -2.3345
    -2.3345  -2.3345  -1.8112  -1.8112  -1.8111  -1.8111  -1.8111  -1.8111

     the Fermi energy is    -2.4052 ev

!    total energy              =    -142.26988388 Ry
     Harris-Foulkes estimate   =    -142.26988388 Ry
     estimated scf accuracy    <          3.0E-09 Ry

     The total energy is the sum of the following terms:

     one-electron contribution =    -702.58264137 Ry
     hartree contribution      =     360.19439644 Ry
     xc contribution           =     -63.84996183 Ry
     ewald contribution        =     264.01498865 Ry
     smearing contrib. (-TS)   =      -0.04666576 Ry

     convergence has been achieved in  15 iterations

     Forces acting on atoms (cartesian axes, Ry/au):

     atom    1 type  1   force =     0.00000097    0.00000123    0.00000000
     atom    2 type  1   force =    -0.00000640    0.00000224    0.00000000
     atom    3 type  1   force =     0.00000388   -0.00000659    0.00000000
     atom    4 type  1   force =    -0.00000531    0.00000213    0.00000000
     atom    5 type  1   force =     0.00000567   -0.00000167    0.00000000
     atom    6 type  1   force =     0.00000224    0.00000263    0.00000000
     atom    7 type  1   force =     0.00000169    0.00000216    0.00000000
     atom    8 type  1   force =    -0.00000265    0.00000663    0.00000000
     atom    9 type  1   force =     0.00001155   -0.00000518    0.00000000
     atom   10 type  1   force =     0.00001106    0.00000085    0.00000000
     atom   11 type  1   force =     0.00000314    0.00000538    0.00000000
     atom   12 type  1   force =    -0.00000146   -0.00000102    0.00000000
     atom   13 type  1   force =     0.00000529    0.00000288    0.00000000
     atom   14 type  1   force =     0.00000956   -0.00000215    0.00000000
     atom   15 type  1   force =    -0.00000077    0.00000314    0.00000000
     atom   16 type  1   force =    -0.00000283   -0.00000510    0.00000000
     atom   17 type  1   force =    -0.00000856   -0.00000718    0.00000000
     atom   18 type  1   force =    -0.00000884    0.00000089    0.00000000
     atom   19 type  1   force =    -0.00000214    0.00000872    0.00000000
     atom   20 type  1   force =     0.00000374   -0.00000497    0.00000000
     atom   21 type  1   force =     0.00000336    0.00000365    0.00000000
     atom   22 type  1   force =    -0.00000533   -0.00000661    0.00000000
     atom   23 type  1   force =     0.00000989   -0.00000160    0.00000000
     atom   24 type  1   force =     0.00000299   -0.00000132    0.00000000
     atom   25 type  1   force =    -0.00000665    0.00000253    0.00000000
     atom   26 type  1   force =    -0.00000757   -0.00000571    0.00000000
     atom   27 type  1   force =    -0.00000562    0.00000180    0.00000000
     atom   28 type  1   force =    -0.00000862   -0.00000289    0.00000000
     atom   29 type  1   force =     0.00000404   -0.00001327    0.00000000
     atom   30 type  1   force =     0.00000557    0.00000273    0.00000000
     atom   31 type  1   force =    -0.00001189    0.00001566    0.00000000

     Total force =     0.000046     Total SCF correction =     0.000059
     SCF correction compared to forces is large: reduce conv_thr to get better values


     Computing stress (Cartesian axis) and pressure

          total   stress  (Ry/bohr**3)                   (kbar)     P=    0.00
   0.00000004  -0.00000000   0.00000000          0.01     -0.00      0.00
  -0.00000000   0.00000005   0.00000000         -0.00      0.01      0.00
   0.00000000   0.00000000  -0.00000002          0.00      0.00     -0.00


     Writing output data file 18al_planar_2x2_vcr.save/
 
     init_run     :     38.96s CPU     45.45s WALL (       2 calls)
     electrons    :  45161.75s CPU  54977.97s WALL (     202 calls)
     update_pot   :   3074.45s CPU   3133.90s WALL (     200 calls)
     forces       :   2690.06s CPU   2808.87s WALL (     202 calls)
     stress       :   8418.36s CPU   8701.98s WALL (     202 calls)

     Called by init_run:
     wfcinit      :     19.78s CPU     25.38s WALL (       2 calls)
     potinit      :      7.41s CPU      7.89s WALL (       2 calls)
     hinit0       :      8.50s CPU      8.71s WALL (       2 calls)

     Called by electrons:
     c_bands      :  37826.07s CPU  45595.54s WALL (    1978 calls)
     sum_band     :   4935.53s CPU   6314.50s WALL (    1978 calls)
     v_of_rho     :   2081.92s CPU   2519.63s WALL (    2149 calls)
     mix_rho      :    433.67s CPU    640.71s WALL (    1978 calls)

     Called by c_bands:
     init_us_2    :    740.36s CPU    786.96s WALL (    3958 calls)
     cegterg      :  32444.36s CPU  40148.11s WALL (    1978 calls)

     Called by sum_band:

     Called by *egterg:
     h_psi        :  28510.62s CPU  35945.91s WALL (   13114 calls)
     g_psi        :    105.74s CPU    110.31s WALL (   11134 calls)
     cdiaghg      :    101.17s CPU    103.79s WALL (   12881 calls)

     Called by h_psi:
     h_psi:pot    :  28431.32s CPU  35745.26s WALL (   13114 calls)
     h_psi:calbec :   3733.63s CPU   3863.08s WALL (   13114 calls)
     vloc_psi     :  20785.47s CPU  27936.37s WALL (   13114 calls)
     add_vuspsi   :   3912.05s CPU   3945.69s WALL (   13114 calls)

     General routines
     calbec       :   4267.58s CPU   4413.33s WALL (   14124 calls)
     fft          :   1714.99s CPU   2051.82s WALL (   26771 calls)
     ffts         :    116.45s CPU    141.27s WALL (    1978 calls)
     fftw         :  21490.92s CPU  29647.24s WALL (  779430 calls)
 
     Parallel routines
     fft_scatt_xy :   4609.70s CPU   6322.91s WALL (  808179 calls)
     fft_scatt_yz :   6461.86s CPU   8122.74s WALL (  808179 calls)
 
     PWSCF        :    16h30m CPU       30h19m WALL

      23h
 
   This run was terminated on:   3:25:44  27Nov2020            

=------------------------------------------------------------------------------=
   JOB DONE.
=------------------------------------------------------------------------------=
