
     Program PWSCF v.6.3MaX starts on 25Nov2020 at 22:43:17 

     This program is part of the open-source Quantum ESPRESSO suite
     for quantum simulation of materials; please cite
         "P. Giannozzi et al., J. Phys.:Condens. Matter 21 395502 (2009);
         "P. Giannozzi et al., J. Phys.:Condens. Matter 29 465901 (2017);
          URL http://www.quantum-espresso.org", 
     in publications or presentations arising from this work. More details at
     http://www.quantum-espresso.org/quote

     Parallel version (MPI), running on     8 processors

     MPI processes distributed on     3 nodes
     R & G space division:  proc/nbgrp/npool/nimage =       8
     Waiting for input...
     Reading input from standard input

     Current dimensions of program PWSCF are:
     Max number of different atomic species (ntypx) = 10
     Max number of k-points (npk) =  40000
     Max angular momentum in pseudopotentials (lmaxx) =  3

     Subspace diagonalization in iterative solution of the eigenvalue problem:
     a serial algorithm will be used

 
     Parallelization info
     --------------------
     sticks:   dense  smooth     PW     G-vecs:    dense   smooth      PW
     Min        3123    3123    778               448599   448599   56048
     Max        3124    3124    779               448604   448604   56052
     Sum       24985   24985   6229              3588803  3588803  448403
 


     bravais-lattice index     =            4
     lattice parameter (alat)  =      33.6810  a.u.
     unit-cell volume          =   37130.3117 (a.u.)^3
     number of atoms/cell      =           31
     number of atomic types    =            1
     number of electrons       =        93.00
     number of Kohn-Sham states=           56
     kinetic-energy cutoff     =      80.0000  Ry
     charge density cutoff     =     320.0000  Ry
     convergence threshold     =      1.0E-06
     mixing beta               =       0.4000
     number of iterations used =            8  plain     mixing
     Exchange-correlation      = PBE ( 1  4  3  4 0 0)
     nstep                     =          300


     celldm(1)=  33.680967  celldm(2)=   0.000000  celldm(3)=   1.122133
     celldm(4)=   0.000000  celldm(5)=   0.000000  celldm(6)=   0.000000

     crystal axes: (cart. coord. in units of alat)
               a(1) = (   1.000000   0.000000   0.000000 )  
               a(2) = (  -0.500000   0.866025   0.000000 )  
               a(3) = (   0.000000   0.000000   1.122133 )  

     reciprocal axes: (cart. coord. in units 2 pi/alat)
               b(1) = (  1.000000  0.577350  0.000000 )  
               b(2) = (  0.000000  1.154701  0.000000 )  
               b(3) = (  0.000000  0.000000  0.891160 )  


     PseudoPot. # 1 for Al read from file:
     ./Al.upf
     MD5 check sum: 4974d48a734c9d7d1eb6780a1419d19d
     Pseudo is Norm-conserving + core correction, Zval =  3.0
     Generated using ONCVPSP code by D. R. Hamann
     Using radial grid of 1876 points,  6 beta functions with: 
                l(1) =   0
                l(2) =   0
                l(3) =   1
                l(4) =   1
                l(5) =   2
                l(6) =   2

     atomic species   valence    mass     pseudopotential
        Al             3.00    29.98200     Al( 1.00)

      2 Sym. Ops. (no inversion) found



   Cartesian axes

     site n.     atom                  positions (alat units)
         1           Al  tau(   1) = (  -0.0000000   0.1443393   0.0000000  )
         2           Al  tau(   2) = (   0.1250015   0.0721696   0.0000000  )
         3           Al  tau(   3) = (  -0.1249997   0.3608472   0.0000000  )
         4           Al  tau(   4) = (   0.0000018   0.2886775   0.0000000  )
         5           Al  tau(   5) = (  -0.2499994   0.5773550   0.0000000  )
         6           Al  tau(   6) = (  -0.1249979   0.5051854   0.0000000  )
         7           Al  tau(   7) = (  -0.3749991   0.7938629   0.0000000  )
         8           Al  tau(   8) = (  -0.2499976   0.7216932   0.0000000  )
         9           Al  tau(   9) = (   0.2500011   0.1443403   0.0000000  )
        10           Al  tau(  10) = (   0.3750027   0.0721706   0.0000000  )
        11           Al  tau(  11) = (   0.2500030   0.2886785   0.0000000  )
        12           Al  tau(  12) = (   0.0000017   0.5773560   0.0000000  )
        13           Al  tau(  13) = (   0.1250033   0.5051864   0.0000000  )
        14           Al  tau(  14) = (  -0.1249980   0.7938639   0.0000000  )
        15           Al  tau(  15) = (   0.0000036   0.7216942   0.0000000  )
        16           Al  tau(  16) = (   0.5000023   0.1443413   0.0000000  )
        17           Al  tau(  17) = (   0.6250038   0.0721717   0.0000000  )
        18           Al  tau(  18) = (   0.3750026   0.3608492   0.0000000  )
        19           Al  tau(  19) = (   0.5000041   0.2886795   0.0000000  )
        20           Al  tau(  20) = (   0.2500029   0.5773571   0.0000000  )
        21           Al  tau(  21) = (   0.3750044   0.5051874   0.0000000  )
        22           Al  tau(  22) = (   0.1250032   0.7938649   0.0000000  )
        23           Al  tau(  23) = (   0.2500047   0.7216953   0.0000000  )
        24           Al  tau(  24) = (   0.7500035   0.1443423   0.0000000  )
        25           Al  tau(  25) = (   0.8750050   0.0721727   0.0000000  )
        26           Al  tau(  26) = (   0.6250038   0.3608502   0.0000000  )
        27           Al  tau(  27) = (   0.7500053   0.2886805   0.0000000  )
        28           Al  tau(  28) = (   0.5000041   0.5773581   0.0000000  )
        29           Al  tau(  29) = (   0.6250056   0.5051884   0.0000000  )
        30           Al  tau(  30) = (   0.3750044   0.7938660   0.0000000  )
        31           Al  tau(  31) = (   0.5000059   0.7216963   0.0000000  )

     number of k points=     1  Methfessel-Paxton smearing, width (Ry)=  0.0500
                       cart. coord. in units 2pi/alat
        k(    1) = (   0.0000000   0.0000000   0.0000000), wk =   2.0000000

     Dense  grid:  3588803 G-vectors     FFT dimensions: ( 192, 192, 216)

     Estimated max dynamical RAM per process >       1.15 GB

     Estimated total dynamical RAM >       9.23 GB

     Initial potential from superposition of free atoms

     starting charge   92.92414, renormalised to   93.00000

     negative rho (up, down):  9.278E-05 0.000E+00
     Starting wfcs are  124 randomized atomic wfcs

     total cpu time spent up to now is       29.7 secs

     Self-consistent Calculation

     iteration #  1     ecut=    80.00 Ry     beta= 0.40
     Davidson diagonalization with overlap
     ethr =  1.00E-02,  avg # of iterations =  2.0

     total cpu time spent up to now is       57.2 secs

     total energy              =    -140.64213375 Ry
     Harris-Foulkes estimate   =    -141.23600628 Ry
     estimated scf accuracy    <       1.54867474 Ry

     iteration #  2     ecut=    80.00 Ry     beta= 0.40
     Davidson diagonalization with overlap
     ethr =  1.67E-03,  avg # of iterations =  5.0

     total cpu time spent up to now is       89.1 secs

     total energy              =    -140.21873613 Ry
     Harris-Foulkes estimate   =    -141.45913238 Ry
     estimated scf accuracy    <       6.75869173 Ry

     iteration #  3     ecut=    80.00 Ry     beta= 0.40
     Davidson diagonalization with overlap
     ethr =  1.67E-03,  avg # of iterations =  5.0

     total cpu time spent up to now is      116.9 secs

     total energy              =    -140.82797381 Ry
     Harris-Foulkes estimate   =    -141.02360429 Ry
     estimated scf accuracy    <       1.17509078 Ry

     iteration #  4     ecut=    80.00 Ry     beta= 0.40
     Davidson diagonalization with overlap
     ethr =  1.26E-03,  avg # of iterations =  1.0

     total cpu time spent up to now is      137.7 secs

     total energy              =    -140.90047504 Ry
     Harris-Foulkes estimate   =    -140.94390523 Ry
     estimated scf accuracy    <       0.14921488 Ry

     iteration #  5     ecut=    80.00 Ry     beta= 0.40
     Davidson diagonalization with overlap
     ethr =  1.60E-04,  avg # of iterations =  4.0

     total cpu time spent up to now is      162.4 secs

     total energy              =    -140.91327021 Ry
     Harris-Foulkes estimate   =    -140.95576459 Ry
     estimated scf accuracy    <       0.30583221 Ry

     iteration #  6     ecut=    80.00 Ry     beta= 0.40
     Davidson diagonalization with overlap
     ethr =  1.60E-04,  avg # of iterations =  3.0

     total cpu time spent up to now is      183.5 secs

     total energy              =    -140.93218827 Ry
     Harris-Foulkes estimate   =    -140.93463170 Ry
     estimated scf accuracy    <       0.01037998 Ry

     iteration #  7     ecut=    80.00 Ry     beta= 0.40
     Davidson diagonalization with overlap
     ethr =  1.12E-05,  avg # of iterations = 11.0

     total cpu time spent up to now is      220.6 secs

     total energy              =    -140.93551023 Ry
     Harris-Foulkes estimate   =    -140.93692800 Ry
     estimated scf accuracy    <       0.00723086 Ry

     iteration #  8     ecut=    80.00 Ry     beta= 0.40
     Davidson diagonalization with overlap
     ethr =  7.78E-06,  avg # of iterations =  3.0

     total cpu time spent up to now is      244.6 secs

     total energy              =    -140.93573501 Ry
     Harris-Foulkes estimate   =    -140.93657844 Ry
     estimated scf accuracy    <       0.00448690 Ry

     iteration #  9     ecut=    80.00 Ry     beta= 0.40
     Davidson diagonalization with overlap
     ethr =  4.82E-06,  avg # of iterations =  1.0

     total cpu time spent up to now is      264.8 secs

     total energy              =    -140.93588439 Ry
     Harris-Foulkes estimate   =    -140.93613987 Ry
     estimated scf accuracy    <       0.00160181 Ry

     iteration # 10     ecut=    80.00 Ry     beta= 0.40
     Davidson diagonalization with overlap
     ethr =  1.72E-06,  avg # of iterations =  4.0

     total cpu time spent up to now is      287.5 secs

     total energy              =    -140.93600661 Ry
     Harris-Foulkes estimate   =    -140.93610125 Ry
     estimated scf accuracy    <       0.00047251 Ry

     iteration # 11     ecut=    80.00 Ry     beta= 0.40
     Davidson diagonalization with overlap
     ethr =  5.08E-07,  avg # of iterations =  5.0

     total cpu time spent up to now is      312.4 secs

     total energy              =    -140.93608080 Ry
     Harris-Foulkes estimate   =    -140.93612792 Ry
     estimated scf accuracy    <       0.00026697 Ry

     iteration # 12     ecut=    80.00 Ry     beta= 0.40
     Davidson diagonalization with overlap
     ethr =  2.87E-07,  avg # of iterations =  3.0

     total cpu time spent up to now is      334.1 secs

     total energy              =    -140.93610179 Ry
     Harris-Foulkes estimate   =    -140.93611832 Ry
     estimated scf accuracy    <       0.00009542 Ry

     iteration # 13     ecut=    80.00 Ry     beta= 0.40
     Davidson diagonalization with overlap
     ethr =  1.03E-07,  avg # of iterations =  3.0

     total cpu time spent up to now is      355.7 secs

     total energy              =    -140.93610859 Ry
     Harris-Foulkes estimate   =    -140.93611287 Ry
     estimated scf accuracy    <       0.00002106 Ry

     iteration # 14     ecut=    80.00 Ry     beta= 0.40
     Davidson diagonalization with overlap
     ethr =  2.26E-08,  avg # of iterations =  5.0

     total cpu time spent up to now is      380.9 secs

     total energy              =    -140.93611022 Ry
     Harris-Foulkes estimate   =    -140.93611410 Ry
     estimated scf accuracy    <       0.00001789 Ry

     iteration # 15     ecut=    80.00 Ry     beta= 0.40
     Davidson diagonalization with overlap
     ethr =  1.92E-08,  avg # of iterations =  4.0

     total cpu time spent up to now is      406.1 secs

     total energy              =    -140.93611066 Ry
     Harris-Foulkes estimate   =    -140.93611409 Ry
     estimated scf accuracy    <       0.00002354 Ry

     iteration # 16     ecut=    80.00 Ry     beta= 0.40
     Davidson diagonalization with overlap
     ethr =  1.92E-08,  avg # of iterations =  3.0

     total cpu time spent up to now is      428.5 secs

     total energy              =    -140.93611198 Ry
     Harris-Foulkes estimate   =    -140.93611250 Ry
     estimated scf accuracy    <       0.00000232 Ry

     iteration # 17     ecut=    80.00 Ry     beta= 0.40
     Davidson diagonalization with overlap
     ethr =  2.49E-09,  avg # of iterations =  5.0

     total cpu time spent up to now is      453.3 secs

     End of self-consistent calculation

          k = 0.0000 0.0000 0.0000 (448403 PWs)   bands (ev):

    -9.9529  -9.4486  -9.4330  -9.4329  -9.4258  -9.4257  -9.1459  -8.4047
    -8.4047  -8.3883  -8.3881  -8.3796  -8.3033  -8.2571  -8.2569  -7.5864
    -6.9325  -6.9323  -6.8232  -6.4864  -6.4773  -6.4772  -6.3701  -6.3700
    -5.4640  -4.8435  -4.8433  -4.8369  -4.7357  -4.7356  -4.4781  -4.4681
    -4.4428  -4.4428  -4.1223  -4.1222  -3.9779  -3.4714  -3.4687  -3.4686
    -3.4575  -3.4575  -3.4018  -3.2744  -3.2743  -3.2224  -3.2073  -2.9743
    -2.9654  -2.9653  -2.9388  -2.5198  -2.5197  -2.4495  -2.4488  -2.4313

     the Fermi energy is    -3.0910 ev

!    total energy              =    -140.93611188 Ry
     Harris-Foulkes estimate   =    -140.93611241 Ry
     estimated scf accuracy    <       0.00000065 Ry

     The total energy is the sum of the following terms:

     one-electron contribution =    -502.03629487 Ry
     hartree contribution      =     259.76317794 Ry
     xc contribution           =     -61.33571480 Ry
     ewald contribution        =     162.75371665 Ry
     smearing contrib. (-TS)   =      -0.08099678 Ry

     convergence has been achieved in  17 iterations

     Forces acting on atoms (cartesian axes, Ry/au):

     atom    1 type  1   force =     0.00064340   -0.00332911    0.00000000
     atom    2 type  1   force =    -0.00000660    0.00129291    0.00000000
     atom    3 type  1   force =    -0.00251570    0.00222312    0.00000000
     atom    4 type  1   force =     0.01311387    0.00760044    0.00000000
     atom    5 type  1   force =    -0.00111437    0.00067626    0.00000000
     atom    6 type  1   force =     0.00112235   -0.00065004    0.00000000
     atom    7 type  1   force =     0.00001907   -0.00128565    0.00000000
     atom    8 type  1   force =     0.00044827    0.00023402    0.00000000
     atom    9 type  1   force =    -0.00062860   -0.00331262    0.00000000
     atom   10 type  1   force =    -0.00526663    0.00127203    0.00000000
     atom   11 type  1   force =    -0.01310960    0.00758978    0.00000000
     atom   12 type  1   force =    -0.00315560    0.00111044    0.00000000
     atom   13 type  1   force =    -0.00000285   -0.01512841    0.00000000
     atom   14 type  1   force =     0.00199623    0.00113890    0.00000000
     atom   15 type  1   force =    -0.00156374   -0.00521680    0.00000000
     atom   16 type  1   force =     0.00187099   -0.00108873    0.00000000
     atom   17 type  1   force =    -0.00001275    0.00002016    0.00000000
     atom   18 type  1   force =     0.00253647    0.00220544    0.00000000
     atom   19 type  1   force =    -0.00370181    0.00395271    0.00000000
     atom   20 type  1   force =     0.00316952    0.00110692    0.00000000
     atom   21 type  1   force =    -0.00113093   -0.00065314    0.00000000
     atom   22 type  1   force =     0.00000748    0.00215157    0.00000000
     atom   23 type  1   force =     0.00155331   -0.00521082    0.00000000
     atom   24 type  1   force =    -0.00185933   -0.00108209    0.00000000
     atom   25 type  1   force =     0.00526256    0.00126850    0.00000000
     atom   26 type  1   force =    -0.00000238   -0.00233431    0.00000000
     atom   27 type  1   force =     0.00367964    0.00393679    0.00000000
     atom   28 type  1   force =     0.00111724    0.00067706    0.00000000
     atom   29 type  1   force =    -0.00000403   -0.00051810    0.00000000
     atom   30 type  1   force =    -0.00199606    0.00113267    0.00000000
     atom   31 type  1   force =    -0.00046939    0.00022011    0.00000000

     Total force =     0.031194     Total SCF correction =     0.000557


     Computing stress (Cartesian axis) and pressure

          total   stress  (Ry/bohr**3)                   (kbar)     P=   -0.57
  -0.00000577   0.00000000   0.00000000         -0.85      0.00      0.00
   0.00000000  -0.00000579   0.00000000          0.00     -0.85      0.00
   0.00000000   0.00000000  -0.00000000          0.00      0.00     -0.00


     BFGS Geometry Optimization

     number of scf cycles    =   1
     number of bfgs steps    =   0

     enthalpy new            =    -140.9361118751 Ry

     new trust radius        =       0.0151571849 bohr
     new conv_thr            =       0.0000010000 Ry

     new unit-cell volume =  37119.57740 a.u.^3 (  5500.55379 Ang^3 )
     density =      0.28059 g/cm^3

CELL_PARAMETERS (alat= 33.68096681)
   0.999855644   0.000000110   0.000000000
  -0.499927727   0.865899980   0.000000000
   0.000000000   0.000000000   1.122132950

ATOMIC_POSITIONS (angstrom)
Al       0.000340119   2.570454016   0.000000000
Al       2.227601778   1.286791546   0.000000000
Al      -2.228903971   6.431695941   0.000000000
Al       0.006971222   5.148433095   0.000000000
Al      -4.455735132  10.289181728   0.000000000
Al      -2.226946111   9.002371997   0.000000000
Al      -6.682708039  14.146447918   0.000000000
Al      -4.454875373  12.861143989   0.000000000
Al       4.454844677   2.570481429   0.000000000
Al       6.679996264   1.286799179   0.000000000
Al       4.448273935   5.148446140   0.000000000
Al      -0.001637574  10.289430139   0.000000000
Al       2.227636120   8.994730168   0.000000000
Al      -2.226484347  14.147749433   0.000000000
Al      -0.000762355  12.858278638   0.000000000
Al       8.911344788   2.571676776   0.000000000
Al      11.137953671   1.286155500   0.000000000
Al       6.684124285   6.431723954   0.000000000
Al       8.908429181   5.146540448   0.000000000
Al       4.456886625  10.289446960   0.000000000
Al       6.682216826   9.002407726   0.000000000
Al       2.227640978  14.148303923   0.000000000
Al       4.456064451  12.858300491   0.000000000
Al      13.364548649   2.571698971   0.000000000
Al      15.595922419   1.286834680   0.000000000
Al      11.137958554   6.429340657   0.000000000
Al      13.367512287   5.146550711   0.000000000
Al       8.910978339  10.289238209   0.000000000
Al      11.137990647   9.002497858   0.000000000
Al       6.681758479  14.147783504   0.000000000
Al       8.910171813  12.861192679   0.000000000



     Writing output data file 11al_planar_2x2_vcr.save/
     NEW-OLD atomic charge density approx. for the potential

     negative rho (up, down):  2.990E-07 0.000E+00
     extrapolated charge   92.97313, renormalised to   93.00000

     total cpu time spent up to now is      535.9 secs

     Self-consistent Calculation

     iteration #  1     ecut=    80.00 Ry     beta= 0.40
     Davidson diagonalization with overlap
     ethr =  1.00E-06,  avg # of iterations =  4.0

     Threshold (ethr) on eigenvalues was too large:
     Diagonalizing with lowered threshold

     Davidson diagonalization with overlap
     ethr =  7.55E-08,  avg # of iterations =  5.0

     negative rho (up, down):  1.479E-07 0.000E+00

     total cpu time spent up to now is      588.7 secs

     total energy              =    -140.93707167 Ry
     Harris-Foulkes estimate   =    -141.07010573 Ry
     estimated scf accuracy    <       0.00008794 Ry

     iteration #  2     ecut=    80.00 Ry     beta= 0.40
     Davidson diagonalization with overlap
     ethr =  9.46E-08,  avg # of iterations =  5.0

     negative rho (up, down):  1.326E-07 0.000E+00

     total cpu time spent up to now is      619.0 secs

     total energy              =    -140.93703572 Ry
     Harris-Foulkes estimate   =    -140.93719088 Ry
     estimated scf accuracy    <       0.00115716 Ry

     iteration #  3     ecut=    80.00 Ry     beta= 0.40
     Davidson diagonalization with overlap
     ethr =  9.46E-08,  avg # of iterations =  4.0

     negative rho (up, down):  9.249E-08 0.000E+00

     total cpu time spent up to now is      646.0 secs

     total energy              =    -140.93710939 Ry
     Harris-Foulkes estimate   =    -140.93711722 Ry
     estimated scf accuracy    <       0.00003302 Ry

     iteration #  4     ecut=    80.00 Ry     beta= 0.40
     Davidson diagonalization with overlap
     ethr =  3.55E-08,  avg # of iterations =  4.0

     negative rho (up, down):  6.466E-08 0.000E+00

     total cpu time spent up to now is      667.4 secs

     total energy              =    -140.93711170 Ry
     Harris-Foulkes estimate   =    -140.93711483 Ry
     estimated scf accuracy    <       0.00001316 Ry

     iteration #  5     ecut=    80.00 Ry     beta= 0.40
     Davidson diagonalization with overlap
     ethr =  1.42E-08,  avg # of iterations =  4.0

     negative rho (up, down):  3.815E-08 0.000E+00

     total cpu time spent up to now is      688.2 secs

     total energy              =    -140.93711260 Ry
     Harris-Foulkes estimate   =    -140.93711506 Ry
     estimated scf accuracy    <       0.00001460 Ry

     iteration #  6     ecut=    80.00 Ry     beta= 0.40
     Davidson diagonalization with overlap
     ethr =  1.42E-08,  avg # of iterations =  1.0

     total cpu time spent up to now is      707.4 secs

     End of self-consistent calculation

          k = 0.0000 0.0000 0.0000 (448403 PWs)   bands (ev):

    -9.9529  -9.4484  -9.4331  -9.4329  -9.4249  -9.4247  -9.1434  -8.4036
    -8.4035  -8.3841  -8.3840  -8.3823  -8.3047  -8.2540  -8.2539  -7.5847
    -6.9319  -6.9318  -6.8225  -6.4817  -6.4772  -6.4771  -6.3718  -6.3717
    -5.4689  -4.8392  -4.8390  -4.8346  -4.7361  -4.7360  -4.4762  -4.4669
    -4.4427  -4.4426  -4.1246  -4.1244  -3.9777  -3.4710  -3.4673  -3.4672
    -3.4580  -3.4578  -3.3994  -3.2728  -3.2727  -3.2208  -3.2168  -2.9698
    -2.9631  -2.9631  -2.9406  -2.5165  -2.5165  -2.4457  -2.4451  -2.4332

     the Fermi energy is    -3.0904 ev

!    total energy              =    -140.93711382 Ry
     Harris-Foulkes estimate   =    -140.93711398 Ry
     estimated scf accuracy    <       0.00000081 Ry

     The total energy is the sum of the following terms:

     one-electron contribution =    -502.12318408 Ry
     hartree contribution      =     259.80488751 Ry
     xc contribution           =     -61.33342391 Ry
     ewald contribution        =     162.79525567 Ry
     smearing contrib. (-TS)   =      -0.08064901 Ry

     convergence has been achieved in   6 iterations

     Forces acting on atoms (cartesian axes, Ry/au):

     atom    1 type  1   force =     0.00071495   -0.00203262    0.00000000
     atom    2 type  1   force =     0.00001388    0.00092924    0.00000000
     atom    3 type  1   force =    -0.00137093    0.00163460    0.00000000
     atom    4 type  1   force =     0.01297961    0.00752458    0.00000000
     atom    5 type  1   force =    -0.00087211    0.00054613    0.00000000
     atom    6 type  1   force =     0.00081589   -0.00046514    0.00000000
     atom    7 type  1   force =     0.00004011   -0.00101387    0.00000000
     atom    8 type  1   force =     0.00067113    0.00037933    0.00000000
     atom    9 type  1   force =    -0.00069656   -0.00201724    0.00000000
     atom   10 type  1   force =    -0.00443848    0.00121537    0.00000000
     atom   11 type  1   force =    -0.01295606    0.00748224    0.00000000
     atom   12 type  1   force =    -0.00208240    0.00039715    0.00000000
     atom   13 type  1   force =    -0.00000537   -0.01494103    0.00000000
     atom   14 type  1   force =     0.00195978    0.00112718    0.00000000
     atom   15 type  1   force =    -0.00119189   -0.00446529    0.00000000
     atom   16 type  1   force =     0.00135744   -0.00079160    0.00000000
     atom   17 type  1   force =    -0.00000167    0.00001142    0.00000000
     atom   18 type  1   force =     0.00138521    0.00162161    0.00000000
     atom   19 type  1   force =    -0.00326010    0.00322230    0.00000000
     atom   20 type  1   force =     0.00208713    0.00039187    0.00000000
     atom   21 type  1   force =    -0.00081865   -0.00047090    0.00000000
     atom   22 type  1   force =     0.00000879    0.00156914    0.00000000
     atom   23 type  1   force =     0.00114577   -0.00445922    0.00000000
     atom   24 type  1   force =    -0.00136026   -0.00079060    0.00000000
     atom   25 type  1   force =     0.00440477    0.00122881    0.00000000
     atom   26 type  1   force =    -0.00000509   -0.00229686    0.00000000
     atom   27 type  1   force =     0.00323191    0.00322077    0.00000000
     atom   28 type  1   force =     0.00089845    0.00053760    0.00000000
     atom   29 type  1   force =    -0.00001419   -0.00074934    0.00000000
     atom   30 type  1   force =    -0.00197136    0.00112013    0.00000000
     atom   31 type  1   force =    -0.00066967    0.00033427    0.00000000

     Total force =     0.029265     Total SCF correction =     0.000453


     Computing stress (Cartesian axis) and pressure

          total   stress  (Ry/bohr**3)                   (kbar)     P=   -0.58
  -0.00000591   0.00000000   0.00000000         -0.87      0.00      0.00
   0.00000000  -0.00000593   0.00000000          0.00     -0.87      0.00
   0.00000000   0.00000000  -0.00000006          0.00      0.00     -0.01


     number of scf cycles    =   2
     number of bfgs steps    =   1

     enthalpy old            =    -140.9361118751 Ry
     enthalpy new            =    -140.9371138193 Ry

     CASE: enthalpy_new < enthalpy_old


     WARNING: bfgs curvature condition failed, Theta= 0.854
     new trust radius        =       0.0227324952 bohr
     new conv_thr            =       0.0000010000 Ry

     new unit-cell volume =  37103.14296 a.u.^3 (  5498.11846 Ang^3 )
     density =      0.28071 g/cm^3

CELL_PARAMETERS (alat= 33.68096681)
   0.999634639   0.000000225   0.000000000
  -0.499817124   0.865707905   0.000000000
   0.000000000   0.000000000   1.122132950

ATOMIC_POSITIONS (angstrom)
Al       0.000889038   2.567859678   0.000000000
Al       2.227114283   1.287360990   0.000000000
Al      -2.229859593   6.431756771   0.000000000
Al       0.017375400   5.153322881   0.000000000
Al      -4.455520399  10.287375885   0.000000000
Al      -2.225706511   8.999946791   0.000000000
Al      -6.681203767  14.142416447   0.000000000
Al      -4.453422329  12.858549350   0.000000000
Al       4.453325155   2.567900222   0.000000000
Al       6.674719588   1.287502544   0.000000000
Al       4.436899003   5.153312430   0.000000000
Al      -0.003630975  10.287686344   0.000000000
Al       2.227141253   8.980748154   0.000000000
Al      -2.224414513  14.145515472   0.000000000
Al      -0.001827490  12.851629291   0.000000000
Al       8.910618179   2.570383485   0.000000000
Al      11.135487145   1.285883397   0.000000000
Al       6.684110024   6.431773980   0.000000000
Al       8.903720904   5.148199175   0.000000000
Al       4.457904239  10.287700005   0.000000000
Al       6.679990510   8.999979763   0.000000000
Al       2.227156829  14.146599923   0.000000000
Al       4.456121986  12.851656473   0.000000000
Al      13.360354271   2.570408726   0.000000000
Al      15.596257831   1.287544547   0.000000000
Al      11.135494161   6.426070686   0.000000000
Al      13.367277289   5.148204276   0.000000000
Al       8.909794965  10.287429975   0.000000000
Al      11.135521587   8.999976081   0.000000000
Al       6.678701510  14.145545186   0.000000000
Al       8.907731119  12.858573233   0.000000000



     Writing output data file 11al_planar_2x2_vcr.save/
     NEW-OLD atomic charge density approx. for the potential

     negative rho (up, down):  4.793E-07 0.000E+00
     extrapolated charge   92.95884, renormalised to   93.00000

     total cpu time spent up to now is      781.0 secs

     Self-consistent Calculation

     iteration #  1     ecut=    80.00 Ry     beta= 0.40
     Davidson diagonalization with overlap
     ethr =  1.00E-06,  avg # of iterations =  4.0

     negative rho (up, down):  2.402E-07 0.000E+00

     total cpu time spent up to now is      812.1 secs

     total energy              =    -140.93842399 Ry
     Harris-Foulkes estimate   =    -141.14222143 Ry
     estimated scf accuracy    <       0.00009907 Ry

     iteration #  2     ecut=    80.00 Ry     beta= 0.40
     Davidson diagonalization with overlap
     ethr =  1.07E-07,  avg # of iterations = 16.0

     negative rho (up, down):  2.154E-07 0.000E+00

     total cpu time spent up to now is      850.5 secs

     total energy              =    -140.93839053 Ry
     Harris-Foulkes estimate   =    -140.93851495 Ry
     estimated scf accuracy    <       0.00090566 Ry

     iteration #  3     ecut=    80.00 Ry     beta= 0.40
     Davidson diagonalization with overlap
     ethr =  1.07E-07,  avg # of iterations =  4.0

     negative rho (up, down):  1.438E-07 0.000E+00

     total cpu time spent up to now is      877.1 secs

     total energy              =    -140.93844864 Ry
     Harris-Foulkes estimate   =    -140.93845852 Ry
     estimated scf accuracy    <       0.00005136 Ry

     iteration #  4     ecut=    80.00 Ry     beta= 0.40
     Davidson diagonalization with overlap
     ethr =  5.52E-08,  avg # of iterations =  1.0

     negative rho (up, down):  7.997E-08 0.000E+00

     total cpu time spent up to now is      897.8 secs

     total energy              =    -140.93844976 Ry
     Harris-Foulkes estimate   =    -140.93845261 Ry
     estimated scf accuracy    <       0.00001204 Ry

     iteration #  5     ecut=    80.00 Ry     beta= 0.40
     Davidson diagonalization with overlap
     ethr =  1.30E-08,  avg # of iterations =  6.0

     negative rho (up, down):  4.197E-08 0.000E+00

     total cpu time spent up to now is      926.3 secs

     total energy              =    -140.93844762 Ry
     Harris-Foulkes estimate   =    -140.93845551 Ry
     estimated scf accuracy    <       0.00004965 Ry

     iteration #  6     ecut=    80.00 Ry     beta= 0.40
     Davidson diagonalization with overlap
     ethr =  1.30E-08,  avg # of iterations =  4.0

     negative rho (up, down):  2.475E-08 0.000E+00

     total cpu time spent up to now is      952.0 secs

     total energy              =    -140.93845137 Ry
     Harris-Foulkes estimate   =    -140.93845298 Ry
     estimated scf accuracy    <       0.00001071 Ry

     iteration #  7     ecut=    80.00 Ry     beta= 0.40
     Davidson diagonalization with overlap
     ethr =  1.15E-08,  avg # of iterations =  3.0

     negative rho (up, down):  1.543E-08 0.000E+00

     total cpu time spent up to now is      974.2 secs

     total energy              =    -140.93845190 Ry
     Harris-Foulkes estimate   =    -140.93845226 Ry
     estimated scf accuracy    <       0.00000201 Ry

     iteration #  8     ecut=    80.00 Ry     beta= 0.40
     Davidson diagonalization with overlap
     ethr =  2.16E-09,  avg # of iterations =  4.0

     total cpu time spent up to now is      998.3 secs

     total energy              =    -140.93845210 Ry
     Harris-Foulkes estimate   =    -140.93845244 Ry
     estimated scf accuracy    <       0.00000242 Ry

     iteration #  9     ecut=    80.00 Ry     beta= 0.40
     Davidson diagonalization with overlap
     ethr =  2.16E-09,  avg # of iterations =  2.0

     total cpu time spent up to now is     1019.3 secs

     End of self-consistent calculation

          k = 0.0000 0.0000 0.0000 (448403 PWs)   bands (ev):

    -9.9542  -9.4499  -9.4358  -9.4350  -9.4234  -9.4229  -9.1416  -8.4049
    -8.4032  -8.3852  -8.3800  -8.3799  -8.3075  -8.2507  -8.2500  -7.5843
    -6.9325  -6.9322  -6.8231  -6.4784  -6.4777  -6.4759  -6.3750  -6.3746
    -5.4767  -4.8348  -4.8345  -4.8333  -4.7375  -4.7373  -4.4754  -4.4664
    -4.4435  -4.4433  -4.1284  -4.1284  -3.9783  -3.4721  -3.4665  -3.4661
    -3.4589  -3.4581  -3.3970  -3.2722  -3.2714  -3.2323  -3.2197  -2.9653
    -2.9612  -2.9609  -2.9430  -2.5141  -2.5137  -2.4466  -2.4412  -2.4411

     the Fermi energy is    -3.0906 ev

!    total energy              =    -140.93845212 Ry
     Harris-Foulkes estimate   =    -140.93845228 Ry
     estimated scf accuracy    <       0.00000025 Ry

     The total energy is the sum of the following terms:

     one-electron contribution =    -502.25986838 Ry
     hartree contribution      =     259.87358612 Ry
     xc contribution           =     -61.33133765 Ry
     ewald contribution        =     162.85953740 Ry
     smearing contrib. (-TS)   =      -0.08036960 Ry

     convergence has been achieved in   9 iterations

     Forces acting on atoms (cartesian axes, Ry/au):

     atom    1 type  1   force =     0.00067402   -0.00037514    0.00000000
     atom    2 type  1   force =     0.00000043    0.00044017    0.00000000
     atom    3 type  1   force =     0.00004411    0.00071494    0.00000000
     atom    4 type  1   force =     0.01277693    0.00744138    0.00000000
     atom    5 type  1   force =    -0.00059476    0.00035875    0.00000000
     atom    6 type  1   force =     0.00030006   -0.00023255    0.00000000
     atom    7 type  1   force =     0.00001025   -0.00070269    0.00000000
     atom    8 type  1   force =     0.00071525    0.00039179    0.00000000
     atom    9 type  1   force =    -0.00063023   -0.00041207    0.00000000
     atom   10 type  1   force =    -0.00347013    0.00118726    0.00000000
     atom   11 type  1   force =    -0.01277768    0.00744817    0.00000000
     atom   12 type  1   force =    -0.00057916   -0.00028982    0.00000000
     atom   13 type  1   force =     0.00002145   -0.01477199    0.00000000
     atom   14 type  1   force =     0.00213086    0.00125970    0.00000000
     atom   15 type  1   force =    -0.00067372   -0.00364779    0.00000000
     atom   16 type  1   force =     0.00073750   -0.00056547    0.00000000
     atom   17 type  1   force =     0.00000058    0.00001243    0.00000000
     atom   18 type  1   force =     0.00002626    0.00060308    0.00000000
     atom   19 type  1   force =    -0.00285872    0.00254887    0.00000000
     atom   20 type  1   force =     0.00049844   -0.00023774    0.00000000
     atom   21 type  1   force =    -0.00023749   -0.00017794    0.00000000
     atom   22 type  1   force =    -0.00002357    0.00084436    0.00000000
     atom   23 type  1   force =     0.00066955   -0.00370870    0.00000000
     atom   24 type  1   force =    -0.00082780   -0.00056049    0.00000000
     atom   25 type  1   force =     0.00351954    0.00109545    0.00000000
     atom   26 type  1   force =     0.00006010   -0.00224328    0.00000000
     atom   27 type  1   force =     0.00273630    0.00259539    0.00000000
     atom   28 type  1   force =     0.00059484    0.00036970    0.00000000
     atom   29 type  1   force =    -0.00001255   -0.00104651    0.00000000
     atom   30 type  1   force =    -0.00199608    0.00123418    0.00000000
     atom   31 type  1   force =    -0.00083459    0.00042655    0.00000000

     Total force =     0.027677     Total SCF correction =     0.000351


     Computing stress (Cartesian axis) and pressure

          total   stress  (Ry/bohr**3)                   (kbar)     P=   -0.60
  -0.00000608   0.00000002   0.00000000         -0.89      0.00      0.00
   0.00000002  -0.00000611   0.00000000          0.00     -0.90      0.00
   0.00000000   0.00000000   0.00000001          0.00      0.00      0.00


     number of scf cycles    =   3
     number of bfgs steps    =   2

     enthalpy old            =    -140.9371138193 Ry
     enthalpy new            =    -140.9384521202 Ry

     CASE: enthalpy_new < enthalpy_old

     new trust radius        =       0.0340912029 bohr
     new conv_thr            =       0.0000010000 Ry

     new unit-cell volume =  37077.91920 a.u.^3 (  5494.38069 Ang^3 )
     density =      0.28090 g/cm^3

CELL_PARAMETERS (alat= 33.68096681)
   0.999295496   0.000001071   0.000000000
  -0.499646820   0.865412555   0.000000000
   0.000000000   0.000000000   1.122132950

ATOMIC_POSITIONS (angstrom)
Al       0.001687261   2.564973530   0.000000000
Al       2.226356405   1.287905198   0.000000000
Al      -2.230395419   6.431221275   0.000000000
Al       0.032966147   5.160628859   0.000000000
Al      -4.454991969  10.284467686   0.000000000
Al      -2.224148479   8.996377957   0.000000000
Al      -6.678908346  14.136437247   0.000000000
Al      -4.451179704  12.854553536   0.000000000
Al       4.451057737   2.565001215   0.000000000
Al       6.667321232   1.288546872   0.000000000
Al       4.419807317   5.160621541   0.000000000
Al      -0.005678652  10.284571909   0.000000000
Al       2.226406446   8.959680591   0.000000000
Al      -2.221147082  14.142151275   0.000000000
Al      -0.003098238  12.842021555   0.000000000
Al       8.909085333   2.568556282   0.000000000
Al      11.131703939   1.285473888   0.000000000
Al       6.683204603   6.431160256   0.000000000
Al       8.896809960   5.150269953   0.000000000
Al       4.458410342  10.284623127   0.000000000
Al       6.676974756   8.996454199   0.000000000
Al       2.226400987  14.143490941   0.000000000
Al       4.455895383  12.842013990   0.000000000
Al      13.354280188   2.568592216   0.000000000
Al      15.596134550   1.288531617   0.000000000
Al      11.131761571   6.421136512   0.000000000
Al      13.366545925   5.150302157   0.000000000
Al       8.907774059  10.284541090   0.000000000
Al      11.131740717   8.995935698   0.000000000
Al       6.674039202  14.142167810   0.000000000
Al       8.903906175  12.854605557   0.000000000



     Writing output data file 11al_planar_2x2_vcr.save/
     NEW-OLD atomic charge density approx. for the potential

     negative rho (up, down):  7.555E-07 0.000E+00
     extrapolated charge   92.93678, renormalised to   93.00000

     total cpu time spent up to now is     1094.8 secs

     Self-consistent Calculation

     iteration #  1     ecut=    80.00 Ry     beta= 0.40
     Davidson diagonalization with overlap
     ethr =  1.00E-06,  avg # of iterations =  5.0

     negative rho (up, down):  3.843E-07 0.000E+00

     total cpu time spent up to now is     1134.3 secs

     total energy              =    -140.94021758 Ry
     Harris-Foulkes estimate   =    -141.25338816 Ry
     estimated scf accuracy    <       0.00020902 Ry

     iteration #  2     ecut=    80.00 Ry     beta= 0.40
     Davidson diagonalization with overlap
     ethr =  2.25E-07,  avg # of iterations =  5.0

     negative rho (up, down):  3.462E-07 0.000E+00

     total cpu time spent up to now is     1165.7 secs

     total energy              =    -140.94019644 Ry
     Harris-Foulkes estimate   =    -140.94049370 Ry
     estimated scf accuracy    <       0.00225523 Ry

     iteration #  3     ecut=    80.00 Ry     beta= 0.40
     Davidson diagonalization with overlap
     ethr =  2.25E-07,  avg # of iterations =  4.0

     negative rho (up, down):  2.230E-07 0.000E+00

     total cpu time spent up to now is     1190.5 secs

     total energy              =    -140.94033532 Ry
     Harris-Foulkes estimate   =    -140.94034707 Ry
     estimated scf accuracy    <       0.00005234 Ry

     iteration #  4     ecut=    80.00 Ry     beta= 0.40
     Davidson diagonalization with overlap
     ethr =  5.63E-08,  avg # of iterations =  3.0

     negative rho (up, down):  1.496E-07 0.000E+00

     total cpu time spent up to now is     1212.7 secs

     total energy              =    -140.94033519 Ry
     Harris-Foulkes estimate   =    -140.94034154 Ry
     estimated scf accuracy    <       0.00002629 Ry

     iteration #  5     ecut=    80.00 Ry     beta= 0.40
     Davidson diagonalization with overlap
     ethr =  2.83E-08,  avg # of iterations =  4.0

     negative rho (up, down):  6.378E-08 0.000E+00

     total cpu time spent up to now is     1237.1 secs

     total energy              =    -140.94033295 Ry
     Harris-Foulkes estimate   =    -140.94034476 Ry
     estimated scf accuracy    <       0.00007576 Ry

     iteration #  6     ecut=    80.00 Ry     beta= 0.40
     Davidson diagonalization with overlap
     ethr =  2.83E-08,  avg # of iterations =  4.0

     negative rho (up, down):  3.080E-08 0.000E+00

     total cpu time spent up to now is     1259.5 secs

     total energy              =    -140.94033851 Ry
     Harris-Foulkes estimate   =    -140.94034044 Ry
     estimated scf accuracy    <       0.00000981 Ry

     iteration #  7     ecut=    80.00 Ry     beta= 0.40
     Davidson diagonalization with overlap
     ethr =  1.06E-08,  avg # of iterations =  4.0

     negative rho (up, down):  1.898E-08 0.000E+00

     total cpu time spent up to now is     1282.4 secs

     total energy              =    -140.94033932 Ry
     Harris-Foulkes estimate   =    -140.94034072 Ry
     estimated scf accuracy    <       0.00000972 Ry

     iteration #  8     ecut=    80.00 Ry     beta= 0.40
     Davidson diagonalization with overlap
     ethr =  1.05E-08,  avg # of iterations =  1.0

     total cpu time spent up to now is     1302.6 secs

     End of self-consistent calculation

          k = 0.0000 0.0000 0.0000 (448403 PWs)   bands (ev):

    -9.9555  -9.4512  -9.4394  -9.4386  -9.4206  -9.4203  -9.1387  -8.4040
    -8.4027  -8.3906  -8.3748  -8.3746  -8.3105  -8.2450  -8.2444  -7.5826
    -6.9329  -6.9326  -6.8233  -6.4789  -6.4781  -6.4683  -6.3784  -6.3782
    -5.4885  -4.8300  -4.8279  -4.8277  -4.7383  -4.7381  -4.4731  -4.4650
    -4.4444  -4.4442  -4.1345  -4.1344  -3.9789  -3.4725  -3.4671  -3.4665
    -3.4578  -3.4573  -3.3935  -3.2696  -3.2690  -3.2552  -3.2180  -2.9601
    -2.9577  -2.9575  -2.9438  -2.5090  -2.5087  -2.4448  -2.4360  -2.4356

     the Fermi energy is    -3.0903 ev

!    total energy              =    -140.94033975 Ry
     Harris-Foulkes estimate   =    -140.94034011 Ry
     estimated scf accuracy    <       0.00000070 Ry

     The total energy is the sum of the following terms:

     one-electron contribution =    -502.47144932 Ry
     hartree contribution      =     259.97930738 Ry
     xc contribution           =     -61.32832641 Ry
     ewald contribution        =     162.95956945 Ry
     smearing contrib. (-TS)   =      -0.07944085 Ry

     convergence has been achieved in   8 iterations

     Forces acting on atoms (cartesian axes, Ry/au):

     atom    1 type  1   force =     0.00080661    0.00199113    0.00000000
     atom    2 type  1   force =    -0.00000310   -0.00014218    0.00000000
     atom    3 type  1   force =     0.00215158   -0.00035368    0.00000000
     atom    4 type  1   force =     0.01270894    0.00740674    0.00000000
     atom    5 type  1   force =    -0.00027014    0.00015618    0.00000000
     atom    6 type  1   force =    -0.00017385    0.00004002    0.00000000
     atom    7 type  1   force =     0.00000658   -0.00030120    0.00000000
     atom    8 type  1   force =     0.00107061    0.00060565    0.00000000
     atom    9 type  1   force =    -0.00079180    0.00196691    0.00000000
     atom   10 type  1   force =    -0.00201758    0.00109455    0.00000000
     atom   11 type  1   force =    -0.01271196    0.00741473    0.00000000
     atom   12 type  1   force =     0.00138050   -0.00163692    0.00000000
     atom   13 type  1   force =     0.00001525   -0.01470855    0.00000000
     atom   14 type  1   force =     0.00200738    0.00119345    0.00000000
     atom   15 type  1   force =    -0.00002070   -0.00232402    0.00000000
     atom   16 type  1   force =    -0.00004649   -0.00005690    0.00000000
     atom   17 type  1   force =    -0.00001092   -0.00000587    0.00000000
     atom   18 type  1   force =    -0.00210950   -0.00042330    0.00000000
     atom   19 type  1   force =    -0.00199568    0.00132517    0.00000000
     atom   20 type  1   force =    -0.00144294   -0.00159778    0.00000000
     atom   21 type  1   force =     0.00019467    0.00006718    0.00000000
     atom   22 type  1   force =    -0.00001749   -0.00005533    0.00000000
     atom   23 type  1   force =     0.00005123   -0.00234809    0.00000000
     atom   24 type  1   force =     0.00000107   -0.00006383    0.00000000
     atom   25 type  1   force =     0.00205911    0.00099871    0.00000000
     atom   26 type  1   force =     0.00003944   -0.00219003    0.00000000
     atom   27 type  1   force =     0.00192703    0.00136870    0.00000000
     atom   28 type  1   force =     0.00028494    0.00017971    0.00000000
     atom   29 type  1   force =     0.00000108   -0.00142611    0.00000000
     atom   30 type  1   force =    -0.00193396    0.00118714    0.00000000
     atom   31 type  1   force =    -0.00115990    0.00063781    0.00000000

     Total force =     0.027034     Total SCF correction =     0.000500


     Computing stress (Cartesian axis) and pressure

          total   stress  (Ry/bohr**3)                   (kbar)     P=   -0.62
  -0.00000631   0.00000002   0.00000000         -0.93      0.00      0.00
   0.00000002  -0.00000635   0.00000000          0.00     -0.93      0.00
   0.00000000   0.00000000   0.00000004          0.00      0.00      0.01


     number of scf cycles    =   4
     number of bfgs steps    =   3

     enthalpy old            =    -140.9384521202 Ry
     enthalpy new            =    -140.9403397529 Ry

     CASE: enthalpy_new < enthalpy_old

     new trust radius        =       0.0511194747 bohr
     new conv_thr            =       0.0000010000 Ry

     new unit-cell volume =  37039.66070 a.u.^3 (  5488.71136 Ang^3 )
     density =      0.28119 g/cm^3

CELL_PARAMETERS (alat= 33.68096681)
   0.998780944   0.000002175   0.000000000
  -0.499388588   0.864964418   0.000000000
   0.000000000   0.000000000   1.122132950

ATOMIC_POSITIONS (angstrom)
Al       0.002972087   2.561879661   0.000000000
Al       2.225204100   1.288420242   0.000000000
Al      -2.230064336   6.429838256   0.000000000
Al       0.056332004   5.171543956   0.000000000
Al      -4.454015264  10.279944892   0.000000000
Al      -2.222021293   8.991106553   0.000000000
Al      -6.675428700  14.127589010   0.000000000
Al      -4.447578997  12.848612537   0.000000000
Al       4.447518930   2.561903207   0.000000000
Al       6.656959633   1.290049724   0.000000000
Al       4.394162575   5.171537237   0.000000000
Al      -0.007733710  10.279089473   0.000000000
Al       2.225282012   8.928043523   0.000000000
Al      -2.216340911  14.136957379   0.000000000
Al      -0.004670313  12.828248997   0.000000000
Al       8.906335515   2.566084277   0.000000000
Al      11.125954905   1.284838368   0.000000000
Al       6.680657250   6.429700151   0.000000000
Al       8.886880375   5.152674267   0.000000000
Al       4.458148550  10.279179784   0.000000000
Al       6.672594365   8.991219622   0.000000000
Al       2.225260338  14.138286629   0.000000000
Al       4.455211724  12.828222626   0.000000000
Al      13.345532257   2.566127428   0.000000000
Al      15.595068953   1.289957591   0.000000000
Al      11.126073884   6.413722349   0.000000000
Al      13.364930086   5.152736497   0.000000000
Al       8.904540732  10.280051606   0.000000000
Al      11.126012710   8.989626068   0.000000000
Al       6.667049486  14.136968213   0.000000000
Al       8.897936777  12.848694417   0.000000000



     Writing output data file 11al_planar_2x2_vcr.save/
     NEW-OLD atomic charge density approx. for the potential

     negative rho (up, down):  1.155E-06 0.000E+00
     extrapolated charge   92.90402, renormalised to   93.00000

     total cpu time spent up to now is     1378.2 secs

     Self-consistent Calculation

     iteration #  1     ecut=    80.00 Ry     beta= 0.40
     Davidson diagonalization with overlap
     ethr =  1.00E-06,  avg # of iterations =  6.0

     negative rho (up, down):  5.971E-07 0.000E+00

     total cpu time spent up to now is     1416.3 secs

     total energy              =    -140.94270896 Ry
     Harris-Foulkes estimate   =    -141.41856584 Ry
     estimated scf accuracy    <       0.00042387 Ry

     iteration #  2     ecut=    80.00 Ry     beta= 0.40
     Davidson diagonalization with overlap
     ethr =  4.56E-07,  avg # of iterations =  6.0

     negative rho (up, down):  5.391E-07 0.000E+00

     total cpu time spent up to now is     1450.5 secs

     total energy              =    -140.94266002 Ry
     Harris-Foulkes estimate   =    -140.94329973 Ry
     estimated scf accuracy    <       0.00491144 Ry

     iteration #  3     ecut=    80.00 Ry     beta= 0.40
     Davidson diagonalization with overlap
     ethr =  4.56E-07,  avg # of iterations =  4.0

     negative rho (up, down):  3.608E-07 0.000E+00

     total cpu time spent up to now is     1478.0 secs

     total energy              =    -140.94295681 Ry
     Harris-Foulkes estimate   =    -140.94298278 Ry
     estimated scf accuracy    <       0.00011624 Ry

     iteration #  4     ecut=    80.00 Ry     beta= 0.40
     Davidson diagonalization with overlap
     ethr =  1.25E-07,  avg # of iterations =  3.0

     negative rho (up, down):  2.450E-07 0.000E+00

     total cpu time spent up to now is     1499.1 secs

     total energy              =    -140.94295604 Ry
     Harris-Foulkes estimate   =    -140.94296932 Ry
     estimated scf accuracy    <       0.00005533 Ry

     iteration #  5     ecut=    80.00 Ry     beta= 0.40
     Davidson diagonalization with overlap
     ethr =  5.95E-08,  avg # of iterations =  4.0

     negative rho (up, down):  1.081E-07 0.000E+00

     total cpu time spent up to now is     1521.9 secs

     total energy              =    -140.94295092 Ry
     Harris-Foulkes estimate   =    -140.94297678 Ry
     estimated scf accuracy    <       0.00016521 Ry

     iteration #  6     ecut=    80.00 Ry     beta= 0.40
     Davidson diagonalization with overlap
     ethr =  5.95E-08,  avg # of iterations =  3.0

     negative rho (up, down):  4.885E-08 0.000E+00

     total cpu time spent up to now is     1542.4 secs

     total energy              =    -140.94296269 Ry
     Harris-Foulkes estimate   =    -140.94296599 Ry
     estimated scf accuracy    <       0.00001524 Ry

     iteration #  7     ecut=    80.00 Ry     beta= 0.40
     Davidson diagonalization with overlap
     ethr =  1.64E-08,  avg # of iterations =  5.0

     negative rho (up, down):  2.998E-08 0.000E+00

     total cpu time spent up to now is     1567.3 secs

     total energy              =    -140.94296377 Ry
     Harris-Foulkes estimate   =    -140.94296723 Ry
     estimated scf accuracy    <       0.00002558 Ry

     iteration #  8     ecut=    80.00 Ry     beta= 0.40
     Davidson diagonalization with overlap
     ethr =  1.64E-08,  avg # of iterations =  3.0

     negative rho (up, down):  1.234E-08 0.000E+00

     total cpu time spent up to now is     1588.6 secs

     total energy              =    -140.94296521 Ry
     Harris-Foulkes estimate   =    -140.94296550 Ry
     estimated scf accuracy    <       0.00000172 Ry

     iteration #  9     ecut=    80.00 Ry     beta= 0.40
     Davidson diagonalization with overlap
     ethr =  1.85E-09,  avg # of iterations =  5.0

     total cpu time spent up to now is     1615.9 secs

     total energy              =    -140.94296516 Ry
     Harris-Foulkes estimate   =    -140.94296554 Ry
     estimated scf accuracy    <       0.00000258 Ry

     iteration # 10     ecut=    80.00 Ry     beta= 0.40
     Davidson diagonalization with overlap
     ethr =  1.85E-09,  avg # of iterations =  3.0

     total cpu time spent up to now is     1638.3 secs

     total energy              =    -140.94296510 Ry
     Harris-Foulkes estimate   =    -140.94296535 Ry
     estimated scf accuracy    <       0.00000212 Ry

     iteration # 11     ecut=    80.00 Ry     beta= 0.40
     Davidson diagonalization with overlap
     ethr =  1.85E-09,  avg # of iterations =  1.0

     total cpu time spent up to now is     1658.0 secs

     End of self-consistent calculation

          k = 0.0000 0.0000 0.0000 (448403 PWs)   bands (ev):

    -9.9567  -9.4520  -9.4436  -9.4427  -9.4158  -9.4157  -9.1341  -8.4024
    -8.4013  -8.3967  -8.3676  -8.3671  -8.3135  -8.2348  -8.2343  -7.5797
    -6.9327  -6.9324  -6.8233  -6.4782  -6.4772  -6.4571  -6.3815  -6.3814
    -5.5047  -4.8244  -4.8177  -4.8176  -4.7373  -4.7372  -4.4688  -4.4616
    -4.4446  -4.4444  -4.1425  -4.1425  -3.9792  -3.4724  -3.4687  -3.4678
    -3.4543  -3.4541  -3.3870  -3.2893  -3.2648  -3.2643  -3.2154  -2.9596
    -2.9514  -2.9510  -2.9346  -2.5009  -2.5008  -2.4426  -2.4283  -2.4278

     the Fermi energy is    -3.0890 ev

!    total energy              =    -140.94296466 Ry
     Harris-Foulkes estimate   =    -140.94296516 Ry
     estimated scf accuracy    <       0.00000059 Ry

     The total energy is the sum of the following terms:

     one-electron contribution =    -502.79080387 Ry
     hartree contribution      =     260.13597279 Ry
     xc contribution           =     -61.32340197 Ry
     ewald contribution        =     163.11313033 Ry
     smearing contrib. (-TS)   =      -0.07786193 Ry

     convergence has been achieved in  11 iterations

     Forces acting on atoms (cartesian axes, Ry/au):

     atom    1 type  1   force =     0.00098805    0.00510157    0.00000000
     atom    2 type  1   force =    -0.00000150   -0.00083441    0.00000000
     atom    3 type  1   force =     0.00492814   -0.00173600    0.00000000
     atom    4 type  1   force =     0.01281886    0.00745064    0.00000000
     atom    5 type  1   force =     0.00012312   -0.00010280    0.00000000
     atom    6 type  1   force =    -0.00074736    0.00038822    0.00000000
     atom    7 type  1   force =    -0.00000773    0.00019189    0.00000000
     atom    8 type  1   force =     0.00156386    0.00089164    0.00000000
     atom    9 type  1   force =    -0.00095121    0.00510474    0.00000000
     atom   10 type  1   force =    -0.00013834    0.00091548    0.00000000
     atom   11 type  1   force =    -0.01280876    0.00744459    0.00000000
     atom   12 type  1   force =     0.00398966   -0.00337746    0.00000000
     atom   13 type  1   force =     0.00001645   -0.01480570    0.00000000
     atom   14 type  1   force =     0.00190975    0.00114707    0.00000000
     atom   15 type  1   force =     0.00074836   -0.00059699    0.00000000
     atom   16 type  1   force =    -0.00106967    0.00055762    0.00000000
     atom   17 type  1   force =    -0.00000675   -0.00001420    0.00000000
     atom   18 type  1   force =    -0.00490670   -0.00179601    0.00000000
     atom   19 type  1   force =    -0.00087187   -0.00024384    0.00000000
     atom   20 type  1   force =    -0.00401456   -0.00334631    0.00000000
     atom   21 type  1   force =     0.00076137    0.00040806    0.00000000
     atom   22 type  1   force =     0.00001282   -0.00121532    0.00000000
     atom   23 type  1   force =    -0.00072626   -0.00060314    0.00000000
     atom   24 type  1   force =     0.00101648    0.00056090    0.00000000
     atom   25 type  1   force =     0.00016688    0.00086008    0.00000000
     atom   26 type  1   force =    -0.00000906   -0.00213386    0.00000000
     atom   27 type  1   force =     0.00083956   -0.00023042    0.00000000
     atom   28 type  1   force =    -0.00011828   -0.00006931    0.00000000
     atom   29 type  1   force =    -0.00000429   -0.00190700    0.00000000
     atom   30 type  1   force =    -0.00189471    0.00110113    0.00000000
     atom   31 type  1   force =    -0.00160629    0.00088912    0.00000000

     Total force =     0.029289     Total SCF correction =     0.000638


     Computing stress (Cartesian axis) and pressure

          total   stress  (Ry/bohr**3)                   (kbar)     P=   -0.66
  -0.00000666   0.00000002   0.00000000         -0.98      0.00      0.00
   0.00000002  -0.00000671   0.00000000          0.00     -0.99      0.00
   0.00000000   0.00000000  -0.00000000          0.00      0.00     -0.00


     number of scf cycles    =   5
     number of bfgs steps    =   4

     enthalpy old            =    -140.9403397529 Ry
     enthalpy new            =    -140.9429646565 Ry

     CASE: enthalpy_new < enthalpy_old

     new trust radius        =       0.0766397584 bohr
     new conv_thr            =       0.0000010000 Ry

     new unit-cell volume =  36981.93990 a.u.^3 (  5480.15802 Ang^3 )
     density =      0.28163 g/cm^3

CELL_PARAMETERS (alat= 33.68096681)
   0.998004140   0.000003653   0.000000000
  -0.498998906   0.864287963   0.000000000
   0.000000000   0.000000000   1.122132950

ATOMIC_POSITIONS (angstrom)
Al       0.004990163   2.558575962   0.000000000
Al       2.223465985   1.288913182   0.000000000
Al      -2.228346196   6.427155361   0.000000000
Al       0.091342648   5.187849911   0.000000000
Al      -4.452372831  10.273003422   0.000000000
Al      -2.219030748   8.983296723   0.000000000
Al      -6.670184988  14.114452327   0.000000000
Al      -4.441920448  12.839774822   0.000000000
Al       4.442110658   2.558616864   0.000000000
Al       6.642237702   1.292186427   0.000000000
Al       4.355720428   5.187829342   0.000000000
Al      -0.009694103  10.270032018   0.000000000
Al       2.223580247   8.880614136   0.000000000
Al      -2.209218250  14.129040775   0.000000000
Al      -0.006719619  12.808329345   0.000000000
Al       8.901733736   2.562640101   0.000000000
Al      11.117278678   1.283874244   0.000000000
Al       6.675572171   6.426915873   0.000000000
Al       8.872492873   5.155529968   0.000000000
Al       4.456644173  10.270167862   0.000000000
Al       6.666189116   8.983453199   0.000000000
Al       2.223559653  14.129923487   0.000000000
Al       4.453837391  12.808291125   0.000000000
Al      13.332779501   2.562701486   0.000000000
Al      15.592521227   1.292019481   0.000000000
Al      11.117446843   6.402613210   0.000000000
Al      13.361918904   5.155608281   0.000000000
Al       8.899480690  10.273160341   0.000000000
Al      11.117359059   8.979930383   0.000000000
Al       6.656572602  14.129015937   0.000000000
Al       8.888742055  12.839867456   0.000000000



     Writing output data file 11al_planar_2x2_vcr.save/
     NEW-OLD atomic charge density approx. for the potential

     negative rho (up, down):  1.734E-06 0.000E+00
     extrapolated charge   92.85497, renormalised to   93.00000

     total cpu time spent up to now is     1733.3 secs

     Self-consistent Calculation

     iteration #  1     ecut=    80.00 Ry     beta= 0.40
     Davidson diagonalization with overlap
     ethr =  1.00E-06,  avg # of iterations =  8.0

     negative rho (up, down):  9.099E-07 0.000E+00

     total cpu time spent up to now is     1774.1 secs

     total energy              =    -140.94619968 Ry
     Harris-Foulkes estimate   =    -141.66600503 Ry
     estimated scf accuracy    <       0.00076268 Ry

     iteration #  2     ecut=    80.00 Ry     beta= 0.40
     Davidson diagonalization with overlap
     ethr =  8.20E-07,  avg # of iterations =  5.0

     negative rho (up, down):  8.148E-07 0.000E+00

     total cpu time spent up to now is     1806.2 secs

     total energy              =    -140.94625208 Ry
     Harris-Foulkes estimate   =    -140.94718144 Ry
     estimated scf accuracy    <       0.00661270 Ry

     iteration #  3     ecut=    80.00 Ry     beta= 0.40
     Davidson diagonalization with overlap
     ethr =  8.20E-07,  avg # of iterations =  7.0

     negative rho (up, down):  5.583E-07 0.000E+00

     total cpu time spent up to now is     1832.8 secs

     total energy              =    -140.94667248 Ry
     Harris-Foulkes estimate   =    -140.94673257 Ry
     estimated scf accuracy    <       0.00027671 Ry

     iteration #  4     ecut=    80.00 Ry     beta= 0.40
     Davidson diagonalization with overlap
     ethr =  2.98E-07,  avg # of iterations =  2.0

     negative rho (up, down):  4.230E-07 0.000E+00

     total cpu time spent up to now is     1853.8 secs

     total energy              =    -140.94667164 Ry
     Harris-Foulkes estimate   =    -140.94670479 Ry
     estimated scf accuracy    <       0.00016315 Ry

     iteration #  5     ecut=    80.00 Ry     beta= 0.40
     Davidson diagonalization with overlap
     ethr =  1.75E-07,  avg # of iterations =  3.0

     negative rho (up, down):  1.594E-07 0.000E+00

     total cpu time spent up to now is     1875.4 secs

     total energy              =    -140.94666877 Ry
     Harris-Foulkes estimate   =    -140.94670945 Ry
     estimated scf accuracy    <       0.00024631 Ry

     iteration #  6     ecut=    80.00 Ry     beta= 0.40
     Davidson diagonalization with overlap
     ethr =  1.75E-07,  avg # of iterations =  1.0

     negative rho (up, down):  6.760E-08 0.000E+00

     total cpu time spent up to now is     1895.8 secs

     total energy              =    -140.94668528 Ry
     Harris-Foulkes estimate   =    -140.94669304 Ry
     estimated scf accuracy    <       0.00003307 Ry

     iteration #  7     ecut=    80.00 Ry     beta= 0.40
     Davidson diagonalization with overlap
     ethr =  3.56E-08,  avg # of iterations = 16.0

     negative rho (up, down):  5.587E-08 0.000E+00

     total cpu time spent up to now is     1927.2 secs

     total energy              =    -140.94653227 Ry
     Harris-Foulkes estimate   =    -140.94654046 Ry
     estimated scf accuracy    <       0.00011983 Ry

     iteration #  8     ecut=    80.00 Ry     beta= 0.40
     Davidson diagonalization with overlap
     ethr =  3.56E-08,  avg # of iterations =  1.0

     negative rho (up, down):  5.588E-08 0.000E+00

     total cpu time spent up to now is     1948.5 secs

     total energy              =    -140.94653399 Ry
     Harris-Foulkes estimate   =    -140.94653392 Ry
     estimated scf accuracy    <       0.00006615 Ry

     iteration #  9     ecut=    80.00 Ry     beta= 0.40
     Davidson diagonalization with overlap
     ethr =  3.56E-08,  avg # of iterations =  1.0

     negative rho (up, down):  5.895E-08 0.000E+00

     total cpu time spent up to now is     1969.3 secs

     total energy              =    -140.94653649 Ry
     Harris-Foulkes estimate   =    -140.94653417 Ry
     estimated scf accuracy    <       0.00006551 Ry

     iteration # 10     ecut=    80.00 Ry     beta= 0.40
     Davidson diagonalization with overlap
     ethr =  3.56E-08,  avg # of iterations =  1.0

     negative rho (up, down):  5.297E-08 0.000E+00

     total cpu time spent up to now is     1988.3 secs

     total energy              =    -140.94653033 Ry
     Harris-Foulkes estimate   =    -140.94653690 Ry
     estimated scf accuracy    <       0.00007771 Ry

     iteration # 11     ecut=    80.00 Ry     beta= 0.40
     Davidson diagonalization with overlap
     ethr =  3.56E-08,  avg # of iterations =  3.0

     negative rho (up, down):  4.002E-08 0.000E+00

     total cpu time spent up to now is     2009.2 secs

     total energy              =    -140.94652531 Ry
     Harris-Foulkes estimate   =    -140.94653223 Ry
     estimated scf accuracy    <       0.00005145 Ry

     iteration # 12     ecut=    80.00 Ry     beta= 0.40
     Davidson diagonalization with overlap
     ethr =  3.56E-08,  avg # of iterations =  4.0

     negative rho (up, down):  2.609E-08 0.000E+00

     total cpu time spent up to now is     2033.4 secs

     total energy              =    -140.94652851 Ry
     Harris-Foulkes estimate   =    -140.94653112 Ry
     estimated scf accuracy    <       0.00004697 Ry

     iteration # 13     ecut=    80.00 Ry     beta= 0.40
     Davidson diagonalization with overlap
     ethr =  3.56E-08,  avg # of iterations =  1.0

     negative rho (up, down):  2.225E-08 0.000E+00

     total cpu time spent up to now is     2054.0 secs

     total energy              =    -140.94652934 Ry
     Harris-Foulkes estimate   =    -140.94653173 Ry
     estimated scf accuracy    <       0.00003959 Ry

     iteration # 14     ecut=    80.00 Ry     beta= 0.40
     Davidson diagonalization with overlap
     ethr =  3.56E-08,  avg # of iterations =  1.0

     negative rho (up, down):  1.683E-08 0.000E+00

     total cpu time spent up to now is     2074.9 secs

     total energy              =    -140.94652737 Ry
     Harris-Foulkes estimate   =    -140.94653081 Ry
     estimated scf accuracy    <       0.00002560 Ry

     iteration # 15     ecut=    80.00 Ry     beta= 0.40
     Davidson diagonalization with overlap
     ethr =  2.75E-08,  avg # of iterations =  1.0

     total cpu time spent up to now is     2095.1 secs

     total energy              =    -140.94652754 Ry
     Harris-Foulkes estimate   =    -140.94652828 Ry
     estimated scf accuracy    <       0.00001528 Ry

     iteration # 16     ecut=    80.00 Ry     beta= 0.40
     Davidson diagonalization with overlap
     ethr =  1.64E-08,  avg # of iterations =  1.0

     total cpu time spent up to now is     2115.7 secs

     total energy              =    -140.94652651 Ry
     Harris-Foulkes estimate   =    -140.94652808 Ry
     estimated scf accuracy    <       0.00001087 Ry

     iteration # 17     ecut=    80.00 Ry     beta= 0.40
     Davidson diagonalization with overlap
     ethr =  1.17E-08,  avg # of iterations =  4.0

     total cpu time spent up to now is     2137.7 secs

     total energy              =    -140.94652589 Ry
     Harris-Foulkes estimate   =    -140.94652727 Ry
     estimated scf accuracy    <       0.00000463 Ry

     iteration # 18     ecut=    80.00 Ry     beta= 0.40
     Davidson diagonalization with overlap
     ethr =  4.98E-09,  avg # of iterations =  5.0

     total cpu time spent up to now is     2164.9 secs

     total energy              =    -140.94652597 Ry
     Harris-Foulkes estimate   =    -140.94652807 Ry
     estimated scf accuracy    <       0.00001662 Ry

     iteration # 19     ecut=    80.00 Ry     beta= 0.40
     Davidson diagonalization with overlap
     ethr =  4.98E-09,  avg # of iterations =  3.0

     total cpu time spent up to now is     2186.4 secs

     End of self-consistent calculation

          k = 0.0000 0.0000 0.0000 (448403 PWs)   bands (ev):

    -9.9602  -9.4536  -9.4514  -9.4513  -9.4122  -9.4119  -9.1302  -8.4083
    -8.4034  -8.4028  -8.3588  -8.3585  -8.3191  -8.2197  -8.2193  -7.5776
    -6.9343  -6.9342  -6.8264  -6.4781  -6.4776  -6.4444  -6.3862  -6.3859
    -5.5302  -4.8186  -4.8061  -4.8059  -4.7364  -4.7361  -4.4637  -4.4576
    -4.4472  -4.4471  -4.1568  -4.1566  -3.9807  -3.4725  -3.4724  -3.4719
    -3.4510  -3.4508  -3.3785  -3.3417  -3.2600  -3.2597  -3.2132  -2.9670
    -2.9431  -2.9429  -2.9165  -2.4914  -2.4910  -2.4513  -2.4414  -2.4410

     the Fermi energy is    -3.0892 ev

!    total energy              =    -140.94652641 Ry
     Harris-Foulkes estimate   =    -140.94652696 Ry
     estimated scf accuracy    <       0.00000070 Ry

     The total energy is the sum of the following terms:

     one-electron contribution =    -503.27482306 Ry
     hartree contribution      =     260.37138911 Ry
     xc contribution           =     -61.31662986 Ry
     ewald contribution        =     163.34988176 Ry
     smearing contrib. (-TS)   =      -0.07634436 Ry

     convergence has been achieved in  19 iterations

     Forces acting on atoms (cartesian axes, Ry/au):

     atom    1 type  1   force =     0.00117196    0.00976819    0.00000000
     atom    2 type  1   force =     0.00002229   -0.00208897    0.00000000
     atom    3 type  1   force =     0.00894696   -0.00382689    0.00000000
     atom    4 type  1   force =     0.01295791    0.00737242    0.00000000
     atom    5 type  1   force =     0.00073793   -0.00051551    0.00000000
     atom    6 type  1   force =    -0.00175472    0.00110896    0.00000000
     atom    7 type  1   force =    -0.00006034    0.00084943    0.00000000
     atom    8 type  1   force =     0.00195606    0.00117634    0.00000000
     atom    9 type  1   force =    -0.00123213    0.00972660    0.00000000
     atom   10 type  1   force =     0.00248692    0.00044779    0.00000000
     atom   11 type  1   force =    -0.01295266    0.00740751    0.00000000
     atom   12 type  1   force =     0.00771647   -0.00600535    0.00000000
     atom   13 type  1   force =    -0.00000529   -0.01494381    0.00000000
     atom   14 type  1   force =     0.00209680    0.00116704    0.00000000
     atom   15 type  1   force =     0.00160677    0.00203010    0.00000000
     atom   16 type  1   force =    -0.00227337    0.00143706    0.00000000
     atom   17 type  1   force =    -0.00000788   -0.00004047    0.00000000
     atom   18 type  1   force =    -0.00902773   -0.00369588    0.00000000
     atom   19 type  1   force =     0.00093677   -0.00251071    0.00000000
     atom   20 type  1   force =    -0.00768042   -0.00606697    0.00000000
     atom   21 type  1   force =     0.00170324    0.00104443    0.00000000
     atom   22 type  1   force =     0.00000145   -0.00260386    0.00000000
     atom   23 type  1   force =    -0.00160310    0.00207810    0.00000000
     atom   24 type  1   force =     0.00232591    0.00141763    0.00000000
     atom   25 type  1   force =    -0.00250288    0.00050656    0.00000000
     atom   26 type  1   force =    -0.00007552   -0.00253289    0.00000000
     atom   27 type  1   force =    -0.00077523   -0.00250766    0.00000000
     atom   28 type  1   force =    -0.00071323   -0.00051750    0.00000000
     atom   29 type  1   force =    -0.00000486   -0.00204759    0.00000000
     atom   30 type  1   force =    -0.00218653    0.00118765    0.00000000
     atom   31 type  1   force =    -0.00181152    0.00117825    0.00000000

     Total force =     0.036767     Total SCF correction =     0.000651


     Computing stress (Cartesian axis) and pressure

          total   stress  (Ry/bohr**3)                   (kbar)     P=   -0.70
  -0.00000720  -0.00000002   0.00000000         -1.06     -0.00      0.00
  -0.00000002  -0.00000717   0.00000000         -0.00     -1.05      0.00
   0.00000000   0.00000000   0.00000000          0.00      0.00      0.00


     number of scf cycles    =   6
     number of bfgs steps    =   5

     enthalpy old            =    -140.9429646565 Ry
     enthalpy new            =    -140.9465264116 Ry

     CASE: enthalpy_new < enthalpy_old

     new trust radius        =       0.1148702752 bohr
     new conv_thr            =       0.0000010000 Ry

     new unit-cell volume =  36894.95275 a.u.^3 (  5467.26786 Ang^3 )
     density =      0.28229 g/cm^3

CELL_PARAMETERS (alat= 33.68096681)
   0.996831023   0.000004460   0.000000000
  -0.498411649   0.863269362   0.000000000
   0.000000000   0.000000000   1.122132950

ATOMIC_POSITIONS (angstrom)
Al       0.008071507   2.555329322   0.000000000
Al       2.220855425   1.289150958   0.000000000
Al      -2.224310940   6.422351264   0.000000000
Al       0.143794809   5.212140357   0.000000000
Al      -4.449670749  10.262390395   0.000000000
Al      -2.214906849   8.971848700   0.000000000
Al      -6.662315102  14.094890104   0.000000000
Al      -4.433341591  12.826535830   0.000000000
Al       4.433833796   2.555363907   0.000000000
Al       6.621059476   1.295107457   0.000000000
Al       4.298068510   5.212116423   0.000000000
Al      -0.011337107  10.255383904   0.000000000
Al       2.220979134   8.809504765   0.000000000
Al      -2.198435493  14.117084400   0.000000000
Al      -0.009606155  12.779425582   0.000000000
Al       8.894421270   2.557773966   0.000000000
Al      11.104173309   1.282393284   0.000000000
Al       6.666364141   6.422081979   0.000000000
Al       8.851613270   5.158910934   0.000000000
Al       4.453073560  10.255513833   0.000000000
Al       6.656834733   8.971997188   0.000000000
Al       2.220963491  14.116909462   0.000000000
Al       4.451497072  12.779402297   0.000000000
Al      13.313957951   2.557841699   0.000000000
Al      15.587577293   1.294902417   0.000000000
Al      11.104365013   6.385640359   0.000000000
Al      13.356640620   5.158995088   0.000000000
Al       8.891602224  10.262574239   0.000000000
Al      11.104277011   8.965466043   0.000000000
Al       6.640608216  14.117044081   0.000000000
Al       8.874917604  12.826623592   0.000000000



     Writing output data file 11al_planar_2x2_vcr.save/
     NEW-OLD atomic charge density approx. for the potential

     negative rho (up, down):  2.660E-06 0.000E+00
     extrapolated charge   92.78091, renormalised to   93.00000

     total cpu time spent up to now is     2261.8 secs

     Self-consistent Calculation

     iteration #  1     ecut=    80.00 Ry     beta= 0.40
     Davidson diagonalization with overlap
     ethr =  1.00E-06,  avg # of iterations =  9.0

     negative rho (up, down):  1.426E-06 0.000E+00

     total cpu time spent up to now is     2308.0 secs

     total energy              =    -140.95025415 Ry
     Harris-Foulkes estimate   =    -142.03999625 Ry
     estimated scf accuracy    <       0.00244599 Ry

     iteration #  2     ecut=    80.00 Ry     beta= 0.40
     Davidson diagonalization with overlap
     ethr =  2.63E-06,  avg # of iterations =  6.0

     negative rho (up, down):  1.291E-06 0.000E+00

     total cpu time spent up to now is     2342.1 secs

     total energy              =    -140.94969822 Ry
     Harris-Foulkes estimate   =    -140.95449254 Ry
     estimated scf accuracy    <       0.03783876 Ry

     iteration #  3     ecut=    80.00 Ry     beta= 0.40
     Davidson diagonalization with overlap
     ethr =  2.63E-06,  avg # of iterations =  4.0

     negative rho (up, down):  9.380E-07 0.000E+00

     total cpu time spent up to now is     2370.0 secs

     total energy              =    -140.95182934 Ry
     Harris-Foulkes estimate   =    -140.95196392 Ry
     estimated scf accuracy    <       0.00061482 Ry

     iteration #  4     ecut=    80.00 Ry     beta= 0.40
     Davidson diagonalization with overlap
     ethr =  6.61E-07,  avg # of iterations =  4.0

     negative rho (up, down):  6.829E-07 0.000E+00

     total cpu time spent up to now is     2391.4 secs

     total energy              =    -140.95183211 Ry
     Harris-Foulkes estimate   =    -140.95189638 Ry
     estimated scf accuracy    <       0.00036451 Ry

     iteration #  5     ecut=    80.00 Ry     beta= 0.40
     Davidson diagonalization with overlap
     ethr =  3.92E-07,  avg # of iterations =  4.0

     negative rho (up, down):  4.068E-07 0.000E+00

     total cpu time spent up to now is     2413.6 secs

     total energy              =    -140.95181280 Ry
     Harris-Foulkes estimate   =    -140.95189883 Ry
     estimated scf accuracy    <       0.00049413 Ry

     iteration #  6     ecut=    80.00 Ry     beta= 0.40
     Davidson diagonalization with overlap
     ethr =  3.92E-07,  avg # of iterations =  3.0

     negative rho (up, down):  7.415E-08 0.000E+00

     total cpu time spent up to now is     2435.1 secs

     total energy              =    -140.95185036 Ry
     Harris-Foulkes estimate   =    -140.95186648 Ry
     estimated scf accuracy    <       0.00008811 Ry

     iteration #  7     ecut=    80.00 Ry     beta= 0.40
     Davidson diagonalization with overlap
     ethr =  9.47E-08,  avg # of iterations =  3.0

     negative rho (up, down):  5.683E-08 0.000E+00

     total cpu time spent up to now is     2458.0 secs

     total energy              =    -140.95186180 Ry
     Harris-Foulkes estimate   =    -140.95186450 Ry
     estimated scf accuracy    <       0.00001356 Ry

     iteration #  8     ecut=    80.00 Ry     beta= 0.40
     Davidson diagonalization with overlap
     ethr =  1.46E-08,  avg # of iterations =  5.0

     negative rho (up, down):  3.056E-08 0.000E+00

     total cpu time spent up to now is     2484.3 secs

     total energy              =    -140.95186356 Ry
     Harris-Foulkes estimate   =    -140.95186636 Ry
     estimated scf accuracy    <       0.00001784 Ry

     iteration #  9     ecut=    80.00 Ry     beta= 0.40
     Davidson diagonalization with overlap
     ethr =  1.46E-08,  avg # of iterations =  1.0

     total cpu time spent up to now is     2505.2 secs

     total energy              =    -140.95186416 Ry
     Harris-Foulkes estimate   =    -140.95186482 Ry
     estimated scf accuracy    <       0.00000379 Ry

     iteration # 10     ecut=    80.00 Ry     beta= 0.40
     Davidson diagonalization with overlap
     ethr =  4.08E-09,  avg # of iterations =  4.0

     total cpu time spent up to now is     2528.5 secs

     total energy              =    -140.95186395 Ry
     Harris-Foulkes estimate   =    -140.95186503 Ry
     estimated scf accuracy    <       0.00000683 Ry

     iteration # 11     ecut=    80.00 Ry     beta= 0.40
     Davidson diagonalization with overlap
     ethr =  4.08E-09,  avg # of iterations =  3.0

     total cpu time spent up to now is     2548.6 secs

     End of self-consistent calculation

          k = 0.0000 0.0000 0.0000 (448403 PWs)   bands (ev):

    -9.9645  -9.4612  -9.4609  -9.4564  -9.4053  -9.4051  -9.1254  -8.4198
    -8.4027  -8.4020  -8.3512  -8.3509  -8.3262  -8.1930  -8.1927  -7.5790
    -6.9362  -6.9360  -6.8295  -6.4764  -6.4760  -6.4243  -6.3900  -6.3898
    -5.5683  -4.8081  -4.7913  -4.7912  -4.7296  -4.7294  -4.4563  -4.4509
    -4.4488  -4.4486  -4.1761  -4.1760  -3.9822  -3.4774  -3.4772  -3.4720
    -3.4440  -3.4438  -3.4233  -3.3635  -3.2516  -3.2514  -3.2117  -2.9757
    -2.9300  -2.9299  -2.8848  -2.4769  -2.4765  -2.4586  -2.4386  -2.4381

     the Fermi energy is    -3.0872 ev

!    total energy              =    -140.95186397 Ry
     Harris-Foulkes estimate   =    -140.95186454 Ry
     estimated scf accuracy    <       0.00000074 Ry

     The total energy is the sum of the following terms:

     one-electron contribution =    -504.03626688 Ry
     hartree contribution      =     260.74607973 Ry
     xc contribution           =     -61.30910895 Ry
     ewald contribution        =     163.71983106 Ry
     smearing contrib. (-TS)   =      -0.07239893 Ry

     convergence has been achieved in  11 iterations

     Forces acting on atoms (cartesian axes, Ry/au):

     atom    1 type  1   force =     0.00175635    0.01545398    0.00000000
     atom    2 type  1   force =     0.00003847   -0.00319629    0.00000000
     atom    3 type  1   force =     0.01413052   -0.00618809    0.00000000
     atom    4 type  1   force =     0.01339770    0.00761486    0.00000000
     atom    5 type  1   force =     0.00143153   -0.00094558    0.00000000
     atom    6 type  1   force =    -0.00270902    0.00168603    0.00000000
     atom    7 type  1   force =    -0.00008152    0.00166740    0.00000000
     atom    8 type  1   force =     0.00278987    0.00166596    0.00000000
     atom    9 type  1   force =    -0.00180395    0.01543966    0.00000000
     atom   10 type  1   force =     0.00594607    0.00010828    0.00000000
     atom   11 type  1   force =    -0.01338630    0.00762939    0.00000000
     atom   12 type  1   force =     0.01235870   -0.00936135    0.00000000
     atom   13 type  1   force =    -0.00001129   -0.01544632    0.00000000
     atom   14 type  1   force =     0.00188434    0.00106308    0.00000000
     atom   15 type  1   force =     0.00305989    0.00520433    0.00000000
     atom   16 type  1   force =    -0.00414449    0.00251178    0.00000000
     atom   17 type  1   force =     0.00000392   -0.00004309    0.00000000
     atom   18 type  1   force =    -0.01425476   -0.00605793    0.00000000
     atom   19 type  1   force =     0.00295088   -0.00535331    0.00000000
     atom   20 type  1   force =    -0.01233462   -0.00940061    0.00000000
     atom   21 type  1   force =     0.00269411    0.00161152    0.00000000
[...]
Al      -7.174161834  10.110700701   0.000000000
Al      -4.761097306  11.278859571   0.000000000
Al       3.636145058   1.282972804   0.000000000
Al       5.440334808  -0.672100204   0.000000000
Al       3.636643182   4.200944205   0.000000000
Al       1.353032056   8.670106972   0.000000000
Al       1.352155463   5.752129629   0.000000000
Al      -0.230696090  13.424250779   0.000000000
Al      -0.451391471  10.625005772   0.000000000
Al       5.974305257   2.674374568   0.000000000
Al      10.075456096   1.232770538   0.000000000
Al       5.699474612   5.778852210   0.000000000
Al       7.935688434   4.523720274   0.000000000
Al       3.534123491   7.190651810   0.000000000
Al       5.838424883   8.558908363   0.000000000
Al       1.837451738  11.628190228   0.000000000
Al       3.753134279   9.952764335   0.000000000
Al      12.524188991   2.523747524   0.000000000
Al      14.637874738   1.190718455   0.000000000
Al      10.324431527   3.663558423   0.000000000
Al      12.540785721   5.226067088   0.000000000
Al       7.952142073   7.225868528   0.000000000
Al      10.151992695   6.086098916   0.000000000
Al       4.250582566  12.796279667   0.000000000
Al       6.281920750  11.352143622   0.000000000
End final coordinates



     Writing output data file 11al_planar_2x2_vcr.save/

     A final scf calculation at the relaxed structure.
     The G-vectors are recalculated for the final unit cell
     Results may differ from those at the preceding step.
 
     Parallelization info
     --------------------
     sticks:   dense  smooth     PW     G-vecs:    dense   smooth      PW
     Min        2262    2262    564               324586   324586   40562
     Max        2263    2263    565               324589   324589   40567
     Sum       18103   18103   4519              2596697  2596697  324517
 


     bravais-lattice index     =            4
     lattice parameter (alat)  =      33.6810  a.u.
     unit-cell volume          =   26861.2641 (a.u.)^3
     number of atoms/cell      =           31
     number of atomic types    =            1
     number of electrons       =        93.00
     number of Kohn-Sham states=           56
     kinetic-energy cutoff     =      80.0000  Ry
     charge density cutoff     =     320.0000  Ry
     convergence threshold     =      1.0E-08
     mixing beta               =       0.4000
     number of iterations used =            8  plain     mixing
     Exchange-correlation      = PBE ( 1  4  3  4 0 0)

     celldm(1)=  33.680967  celldm(2)=   0.000000  celldm(3)=   1.122133
     celldm(4)=   0.000000  celldm(5)=   0.000000  celldm(6)=   0.000000

     crystal axes: (cart. coord. in units of alat)
               a(1) = (   0.868935  -0.011387   0.000000 )  
               a(2) = (  -0.443952   0.726828   0.000000 )  
               a(3) = (   0.000000   0.000000   1.122133 )  

     reciprocal axes: (cart. coord. in units 2 pi/alat)
               b(1) = (  1.160121  0.708610  0.000000 )  
               b(2) = (  0.018176  1.386943  0.000000 )  
               b(3) = (  0.000000  0.000000  0.891160 )  


     PseudoPot. # 1 for Al read from file:
     ./Al.upf
     MD5 check sum: 4974d48a734c9d7d1eb6780a1419d19d
     Pseudo is Norm-conserving + core correction, Zval =  3.0
     Generated using ONCVPSP code by D. R. Hamann
     Using radial grid of 1876 points,  6 beta functions with: 
                l(1) =   0
                l(2) =   0
                l(3) =   1
                l(4) =   1
                l(5) =   2
                l(6) =   2

     atomic species   valence    mass     pseudopotential
        Al             3.00    29.98200     Al( 1.00)

      2 Sym. Ops. (no inversion) found



   Cartesian axes

     site n.     atom                  positions (alat units)
         1           Al  tau(   1) = (   0.0816307   0.1549685   0.0000000  )
         2           Al  tau(   2) = (   0.0693534   0.0000015   0.0000000  )
         3           Al  tau(   3) = (  -0.0552841   0.4083983   0.0000000  )
         4           Al  tau(   4) = (  -0.0398554   0.2341753   0.0000000  )
         5           Al  tau(   5) = (  -0.2853809   0.4892412   0.0000000  )
         6           Al  tau(   6) = (  -0.1510972   0.5320721   0.0000000  )
         7           Al  tau(   7) = (  -0.4025182   0.5672775   0.0000000  )
         8           Al  tau(   8) = (  -0.2671292   0.6328190   0.0000000  )
         9           Al  tau(   9) = (   0.2040119   0.0719833   0.0000000  )
        10           Al  tau(  10) = (   0.3052389  -0.0377093   0.0000000  )
        11           Al  tau(  11) = (   0.2040399   0.2357009   0.0000000  )
        12           Al  tau(  12) = (   0.0759141   0.4864506   0.0000000  )
        13           Al  tau(  13) = (   0.0758649   0.3227327   0.0000000  )
        14           Al  tau(  14) = (  -0.0129436   0.7531897   0.0000000  )
        15           Al  tau(  15) = (  -0.0253261   0.5961335   0.0000000  )
        16           Al  tau(  16) = (   0.3351982   0.1500502   0.0000000  )
        17           Al  tau(  17) = (   0.5653001   0.0691666   0.0000000  )
        18           Al  tau(  18) = (   0.3197784   0.3242320   0.0000000  )
        19           Al  tau(  19) = (   0.4452449   0.2538108   0.0000000  )
        20           Al  tau(  20) = (   0.1982878   0.4034434   0.0000000  )
        21           Al  tau(  21) = (   0.3275744   0.4802117   0.0000000  )
        22           Al  tau(  22) = (   0.1030933   0.6524188   0.0000000  )
        23           Al  tau(  23) = (   0.2105758   0.5584162   0.0000000  )
        24           Al  tau(  24) = (   0.7026903   0.1415990   0.0000000  )
        25           Al  tau(  25) = (   0.8212821   0.0668072   0.0000000  )
        26           Al  tau(  26) = (   0.5792692   0.2055500   0.0000000  )
        27           Al  tau(  27) = (   0.7036214   0.2932171   0.0000000  )
        28           Al  tau(  28) = (   0.4461680   0.4054193   0.0000000  )
        29           Al  tau(  29) = (   0.5695943   0.3414706   0.0000000  )
        30           Al  tau(  30) = (   0.2384859   0.7179564   0.0000000  )
        31           Al  tau(  31) = (   0.3524575   0.6369307   0.0000000  )

     number of k points=     1  Methfessel-Paxton smearing, width (Ry)=  0.0500
                       cart. coord. in units 2pi/alat
        k(    1) = (   0.0000000   0.0000000   0.0000000), wk =   2.0000000

     Dense  grid:  2596697 G-vectors     FFT dimensions: ( 180, 180, 216)

     Estimated max dynamical RAM per process >     874.04 MB

     Estimated total dynamical RAM >       6.83 GB

     Initial potential from superposition of free atoms

     starting charge   92.92414, renormalised to   93.00000

     negative rho (up, down):  7.285E-05 0.000E+00
     Starting wfcs are  124 randomized atomic wfcs

     total cpu time spent up to now is    89785.1 secs

     Self-consistent Calculation

     iteration #  1     ecut=    80.00 Ry     beta= 0.40
     Davidson diagonalization with overlap
     c_bands:  3 eigenvalues not converged
     ethr =  1.00E-06,  avg # of iterations = 20.0

     negative rho (up, down):  1.137E-05 0.000E+00

     total cpu time spent up to now is    89848.5 secs

     total energy              =    -141.94854942 Ry
     Harris-Foulkes estimate   =    -142.38781850 Ry
     estimated scf accuracy    <       1.10837647 Ry

     iteration #  2     ecut=    80.00 Ry     beta= 0.40
     Davidson diagonalization with overlap
     ethr =  1.19E-03,  avg # of iterations =  5.0

     negative rho (up, down):  7.061E-06 0.000E+00

     total cpu time spent up to now is    89868.3 secs

     total energy              =    -141.89572189 Ry
     Harris-Foulkes estimate   =    -142.21991322 Ry
     estimated scf accuracy    <       0.99227169 Ry

     iteration #  3     ecut=    80.00 Ry     beta= 0.40
     Davidson diagonalization with overlap
     ethr =  1.07E-03,  avg # of iterations =  5.0

     negative rho (up, down):  2.960E-06 0.000E+00

     total cpu time spent up to now is    89888.3 secs

     total energy              =    -142.00747989 Ry
     Harris-Foulkes estimate   =    -142.14480720 Ry
     estimated scf accuracy    <       0.55018150 Ry

     iteration #  4     ecut=    80.00 Ry     beta= 0.40
     Davidson diagonalization with overlap
     ethr =  5.92E-04,  avg # of iterations =  4.0

     negative rho (up, down):  1.121E-06 0.000E+00

     total cpu time spent up to now is    89906.7 secs

     total energy              =    -142.06272953 Ry
     Harris-Foulkes estimate   =    -142.08483360 Ry
     estimated scf accuracy    <       0.07280390 Ry

     iteration #  5     ecut=    80.00 Ry     beta= 0.40
     Davidson diagonalization with overlap
     ethr =  7.83E-05,  avg # of iterations = 19.0

     negative rho (up, down):  7.119E-07 0.000E+00

     total cpu time spent up to now is    89934.4 secs

     total energy              =    -142.07311494 Ry
     Harris-Foulkes estimate   =    -142.07744843 Ry
     estimated scf accuracy    <       0.01649220 Ry

     iteration #  6     ecut=    80.00 Ry     beta= 0.40
     Davidson diagonalization with overlap
     ethr =  1.77E-05,  avg # of iterations =  4.0

     negative rho (up, down):  2.254E-07 0.000E+00

     total cpu time spent up to now is    89954.3 secs

     total energy              =    -142.07481314 Ry
     Harris-Foulkes estimate   =    -142.07711326 Ry
     estimated scf accuracy    <       0.01010929 Ry

     iteration #  7     ecut=    80.00 Ry     beta= 0.40
     Davidson diagonalization with overlap
     ethr =  1.09E-05,  avg # of iterations =  4.0

     negative rho (up, down):  5.348E-08 0.000E+00

     total cpu time spent up to now is    89972.5 secs

     total energy              =    -142.07578915 Ry
     Harris-Foulkes estimate   =    -142.07609736 Ry
     estimated scf accuracy    <       0.00125553 Ry

     iteration #  8     ecut=    80.00 Ry     beta= 0.40
     Davidson diagonalization with overlap
     ethr =  1.35E-06,  avg # of iterations =  9.0

     negative rho (up, down):  2.127E-08 0.000E+00

     total cpu time spent up to now is    89997.3 secs

     total energy              =    -142.07595582 Ry
     Harris-Foulkes estimate   =    -142.07605164 Ry
     estimated scf accuracy    <       0.00044845 Ry

     iteration #  9     ecut=    80.00 Ry     beta= 0.40
     Davidson diagonalization with overlap
     ethr =  4.82E-07,  avg # of iterations =  3.0

     total cpu time spent up to now is    90016.3 secs

     total energy              =    -142.07598120 Ry
     Harris-Foulkes estimate   =    -142.07600609 Ry
     estimated scf accuracy    <       0.00010215 Ry

     iteration # 10     ecut=    80.00 Ry     beta= 0.40
     Davidson diagonalization with overlap
     ethr =  1.10E-07,  avg # of iterations =  4.0

     total cpu time spent up to now is    90037.4 secs

     total energy              =    -142.07599836 Ry
     Harris-Foulkes estimate   =    -142.07600366 Ry
     estimated scf accuracy    <       0.00002107 Ry

     iteration # 11     ecut=    80.00 Ry     beta= 0.40
     Davidson diagonalization with overlap
     ethr =  2.27E-08,  avg # of iterations =  4.0

     total cpu time spent up to now is    90058.3 secs

     total energy              =    -142.07600016 Ry
     Harris-Foulkes estimate   =    -142.07600273 Ry
     estimated scf accuracy    <       0.00001001 Ry

     iteration # 12     ecut=    80.00 Ry     beta= 0.40
     Davidson diagonalization with overlap
     ethr =  1.08E-08,  avg # of iterations =  4.0

     total cpu time spent up to now is    90078.0 secs

     total energy              =    -142.07600106 Ry
     Harris-Foulkes estimate   =    -142.07600171 Ry
     estimated scf accuracy    <       0.00000227 Ry

     iteration # 13     ecut=    80.00 Ry     beta= 0.40
     Davidson diagonalization with overlap
     ethr =  2.44E-09,  avg # of iterations =  4.0

     total cpu time spent up to now is    90100.1 secs

     total energy              =    -142.07600119 Ry
     Harris-Foulkes estimate   =    -142.07600149 Ry
     estimated scf accuracy    <       0.00000148 Ry

     iteration # 14     ecut=    80.00 Ry     beta= 0.40
     Davidson diagonalization with overlap
     ethr =  1.59E-09,  avg # of iterations =  2.0

     total cpu time spent up to now is    90116.7 secs

     total energy              =    -142.07600114 Ry
     Harris-Foulkes estimate   =    -142.07600124 Ry
     estimated scf accuracy    <       0.00000025 Ry

     iteration # 15     ecut=    80.00 Ry     beta= 0.40
     Davidson diagonalization with overlap
     ethr =  2.68E-10,  avg # of iterations =  5.0

     total cpu time spent up to now is    90139.0 secs

     total energy              =    -142.07600111 Ry
     Harris-Foulkes estimate   =    -142.07600115 Ry
     estimated scf accuracy    <       0.00000015 Ry

     iteration # 16     ecut=    80.00 Ry     beta= 0.40
     Davidson diagonalization with overlap
     ethr =  1.61E-10,  avg # of iterations =  3.0

     total cpu time spent up to now is    90158.0 secs

     total energy              =    -142.07600106 Ry
     Harris-Foulkes estimate   =    -142.07600109 Ry
     estimated scf accuracy    <       0.00000006 Ry

     iteration # 17     ecut=    80.00 Ry     beta= 0.40
     Davidson diagonalization with overlap
     ethr =  6.62E-11,  avg # of iterations =  3.0

     total cpu time spent up to now is    90175.6 secs

     End of self-consistent calculation

          k = 0.0000 0.0000 0.0000 (324517 PWs)   bands (ev):

   -11.5959 -10.9754 -10.8660 -10.7531 -10.6934 -10.5869 -10.1831  -9.2669
    -9.2358  -9.1643  -8.9079  -8.7142  -8.7054  -8.3332  -8.1919  -8.1544
    -8.0864  -7.9058  -7.7282  -6.2426  -6.2044  -6.1200  -6.0617  -5.8996
    -5.7351  -5.6665  -5.4649  -5.3223  -5.3007  -5.1905  -5.1585  -4.8529
    -4.4746  -4.4746  -4.1971  -4.1911  -4.1172  -4.0526  -4.0162  -3.9622
    -3.9536  -3.7343  -3.6933  -3.6682  -2.5566  -2.5446  -2.4641  -2.2952
    -2.1824  -2.1528  -1.9202  -1.8509  -1.7319  -1.7223  -1.6610  -1.5613

     the Fermi energy is    -2.4325 ev

!    total energy              =    -142.07600102 Ry
     Harris-Foulkes estimate   =    -142.07600104 Ry
     estimated scf accuracy    <          4.1E-09 Ry

     The total energy is the sum of the following terms:

     one-electron contribution =    -684.10216314 Ry
     hartree contribution      =     350.79630122 Ry
     xc contribution           =     -63.66156455 Ry
     ewald contribution        =     254.92133074 Ry
     smearing contrib. (-TS)   =      -0.02990529 Ry

     convergence has been achieved in  17 iterations

     Forces acting on atoms (cartesian axes, Ry/au):

     atom    1 type  1   force =    -0.00000181    0.00000191    0.00000000
     atom    2 type  1   force =     0.00000729    0.00000806    0.00000000
     atom    3 type  1   force =    -0.00000242   -0.00000554    0.00000000
     atom    4 type  1   force =     0.00000168    0.00000087    0.00000000
     atom    5 type  1   force =     0.00000381   -0.00000656    0.00000000
     atom    6 type  1   force =     0.00000422    0.00000012    0.00000000
     atom    7 type  1   force =    -0.00000060   -0.00000753    0.00000000
     atom    8 type  1   force =     0.00000877   -0.00000122    0.00000000
     atom    9 type  1   force =     0.00000565   -0.00000897    0.00000000
     atom   10 type  1   force =    -0.00000490   -0.00000885    0.00000000
     atom   11 type  1   force =     0.00000070    0.00000468    0.00000000
     atom   12 type  1   force =    -0.00000129   -0.00000177    0.00000000
     atom   13 type  1   force =    -0.00000274   -0.00001334    0.00000000
     atom   14 type  1   force =    -0.00000051   -0.00000835    0.00000000
     atom   15 type  1   force =     0.00000739   -0.00000204    0.00000000
     atom   16 type  1   force =    -0.00000545   -0.00000714    0.00000000
     atom   17 type  1   force =     0.00000068    0.00000709    0.00000000
     atom   18 type  1   force =     0.00000312    0.00000630    0.00000000
     atom   19 type  1   force =     0.00000084    0.00000200    0.00000000
     atom   20 type  1   force =     0.00000459    0.00001088    0.00000000
     atom   21 type  1   force =    -0.00000437    0.00000425    0.00000000
     atom   22 type  1   force =     0.00000174    0.00000775    0.00000000
     atom   23 type  1   force =    -0.00000768   -0.00000666    0.00000000
     atom   24 type  1   force =     0.00000144    0.00000669    0.00000000
     atom   25 type  1   force =    -0.00000356    0.00000515    0.00000000
     atom   26 type  1   force =    -0.00000096    0.00000600    0.00000000
     atom   27 type  1   force =    -0.00000347    0.00000164    0.00000000
     atom   28 type  1   force =     0.00000186    0.00000353    0.00000000
     atom   29 type  1   force =    -0.00000288    0.00000611    0.00000000
     atom   30 type  1   force =    -0.00000188    0.00000171    0.00000000
     atom   31 type  1   force =    -0.00000924   -0.00000676    0.00000000

     Total force =     0.000042     Total SCF correction =     0.000054
     SCF correction compared to forces is large: reduce conv_thr to get better values


     Computing stress (Cartesian axis) and pressure

          total   stress  (Ry/bohr**3)                   (kbar)     P=    0.00
   0.00000003   0.00000001   0.00000000          0.00      0.00      0.00
   0.00000001   0.00000003   0.00000000          0.00      0.00      0.00
   0.00000000   0.00000000  -0.00000001          0.00      0.00     -0.00


     Writing output data file 11al_planar_2x2_vcr.save/
 
     init_run     :     40.42s CPU     46.63s WALL (       2 calls)
     electrons    :  58106.35s CPU  70074.06s WALL (     266 calls)
     update_pot   :   4391.07s CPU   4468.98s WALL (     264 calls)
     forces       :   3751.11s CPU   3922.69s WALL (     266 calls)
     stress       :  11089.41s CPU  11453.00s WALL (     266 calls)

     Called by init_run:
     wfcinit      :     20.78s CPU     26.34s WALL (       2 calls)
     potinit      :      7.57s CPU      7.90s WALL (       2 calls)
     hinit0       :      8.79s CPU      8.95s WALL (       2 calls)

     Called by electrons:
     c_bands      :  48458.93s CPU  58115.12s WALL (    2467 calls)
     sum_band     :   6563.35s CPU   8071.15s WALL (    2467 calls)
     v_of_rho     :   2675.55s CPU   3191.01s WALL (    2682 calls)
     mix_rho      :    532.79s CPU    779.47s WALL (    2467 calls)

     Called by c_bands:
     init_us_2    :    817.09s CPU    898.28s WALL (    4936 calls)
     cegterg      :  41750.84s CPU  51296.04s WALL (    2467 calls)

     Called by sum_band:

     Called by *egterg:
     h_psi        :  36781.98s CPU  45892.14s WALL (   15860 calls)
     g_psi        :    126.89s CPU    136.61s WALL (   13391 calls)
     cdiaghg      :    123.49s CPU    129.79s WALL (   15543 calls)

     Called by h_psi:
     h_psi:pot    :  36685.52s CPU  45646.38s WALL (   15860 calls)
     h_psi:calbec :   4663.01s CPU   4937.41s WALL (   15860 calls)
     vloc_psi     :  27287.02s CPU  35896.22s WALL (   15860 calls)
     add_vuspsi   :   4735.26s CPU   4812.57s WALL (   15860 calls)

     General routines
     calbec       :   5384.19s CPU   5684.35s WALL (   17190 calls)
     fft          :   2615.09s CPU   3012.83s WALL (   33785 calls)
     ffts         :    160.22s CPU    187.35s WALL (    2467 calls)
     fftw         :  28938.17s CPU  38573.72s WALL (  958906 calls)
 
     Parallel routines
     fft_scatt_xy :   5300.69s CPU   7338.30s WALL (  995158 calls)
     fft_scatt_yz :  11935.92s CPU  13916.23s WALL (  995158 calls)
 
     PWSCF        :    21h31m CPU        1d    1h 3m WALL

 
   This run was terminated on:  23:46:50  26Nov2020            

=------------------------------------------------------------------------------=
   JOB DONE.
=------------------------------------------------------------------------------=
