
     Program PWSCF v.6.3MaX starts on 25Nov2020 at 20:12: 7 

     This program is part of the open-source Quantum ESPRESSO suite
     for quantum simulation of materials; please cite
         "P. Giannozzi et al., J. Phys.:Condens. Matter 21 395502 (2009);
         "P. Giannozzi et al., J. Phys.:Condens. Matter 29 465901 (2017);
          URL http://www.quantum-espresso.org", 
     in publications or presentations arising from this work. More details at
     http://www.quantum-espresso.org/quote

     Parallel version (MPI), running on     8 processors

     MPI processes distributed on     5 nodes
     R & G space division:  proc/nbgrp/npool/nimage =       8
     Waiting for input...
     Reading input from standard input

     Current dimensions of program PWSCF are:
     Max number of different atomic species (ntypx) = 10
     Max number of k-points (npk) =  40000
     Max angular momentum in pseudopotentials (lmaxx) =  3

     Subspace diagonalization in iterative solution of the eigenvalue problem:
     a serial algorithm will be used

 
     Parallelization info
     --------------------
     sticks:   dense  smooth     PW     G-vecs:    dense   smooth      PW
     Min        3123    3123    778               448599   448599   56048
     Max        3124    3124    779               448604   448604   56052
     Sum       24985   24985   6229              3588803  3588803  448403
 


     bravais-lattice index     =            4
     lattice parameter (alat)  =      33.6810  a.u.
     unit-cell volume          =   37130.3117 (a.u.)^3
     number of atoms/cell      =           31
     number of atomic types    =            1
     number of electrons       =        93.00
     number of Kohn-Sham states=           56
     kinetic-energy cutoff     =      80.0000  Ry
     charge density cutoff     =     320.0000  Ry
     convergence threshold     =      1.0E-06
     mixing beta               =       0.4000
     number of iterations used =            8  plain     mixing
     Exchange-correlation      = PBE ( 1  4  3  4 0 0)
     nstep                     =          300


     celldm(1)=  33.680967  celldm(2)=   0.000000  celldm(3)=   1.122133
     celldm(4)=   0.000000  celldm(5)=   0.000000  celldm(6)=   0.000000

     crystal axes: (cart. coord. in units of alat)
               a(1) = (   1.000000   0.000000   0.000000 )  
               a(2) = (  -0.500000   0.866025   0.000000 )  
               a(3) = (   0.000000   0.000000   1.122133 )  

     reciprocal axes: (cart. coord. in units 2 pi/alat)
               b(1) = (  1.000000  0.577350  0.000000 )  
               b(2) = (  0.000000  1.154701  0.000000 )  
               b(3) = (  0.000000  0.000000  0.891160 )  


     PseudoPot. # 1 for Al read from file:
     ./Al.upf
     MD5 check sum: 4974d48a734c9d7d1eb6780a1419d19d
     Pseudo is Norm-conserving + core correction, Zval =  3.0
     Generated using ONCVPSP code by D. R. Hamann
     Using radial grid of 1876 points,  6 beta functions with: 
                l(1) =   0
                l(2) =   0
                l(3) =   1
                l(4) =   1
                l(5) =   2
                l(6) =   2

     atomic species   valence    mass     pseudopotential
        Al             3.00    29.98200     Al( 1.00)

      4 Sym. Ops. (no inversion) found ( 2 have fractional translation)



   Cartesian axes

     site n.     atom                  positions (alat units)
         1           Al  tau(   1) = (  -0.0000000   0.1443393   0.0000000  )
         2           Al  tau(   2) = (   0.1250015   0.0721696   0.0000000  )
         3           Al  tau(   3) = (  -0.1249997   0.3608472   0.0000000  )
         4           Al  tau(   4) = (   0.0000018   0.2886775   0.0000000  )
         5           Al  tau(   5) = (  -0.1249979   0.5051854   0.0000000  )
         6           Al  tau(   6) = (  -0.3749991   0.7938629   0.0000000  )
         7           Al  tau(   7) = (  -0.2499976   0.7216932   0.0000000  )
         8           Al  tau(   8) = (   0.2500011   0.1443403   0.0000000  )
         9           Al  tau(   9) = (   0.3750027   0.0721706   0.0000000  )
        10           Al  tau(  10) = (   0.1250014   0.3608482   0.0000000  )
        11           Al  tau(  11) = (   0.2500030   0.2886785   0.0000000  )
        12           Al  tau(  12) = (   0.0000017   0.5773560   0.0000000  )
        13           Al  tau(  13) = (   0.1250033   0.5051864   0.0000000  )
        14           Al  tau(  14) = (  -0.1249980   0.7938639   0.0000000  )
        15           Al  tau(  15) = (   0.0000036   0.7216942   0.0000000  )
        16           Al  tau(  16) = (   0.5000023   0.1443413   0.0000000  )
        17           Al  tau(  17) = (   0.6250038   0.0721717   0.0000000  )
        18           Al  tau(  18) = (   0.3750026   0.3608492   0.0000000  )
        19           Al  tau(  19) = (   0.5000041   0.2886795   0.0000000  )
        20           Al  tau(  20) = (   0.2500029   0.5773571   0.0000000  )
        21           Al  tau(  21) = (   0.3750044   0.5051874   0.0000000  )
        22           Al  tau(  22) = (   0.1250032   0.7938649   0.0000000  )
        23           Al  tau(  23) = (   0.2500047   0.7216953   0.0000000  )
        24           Al  tau(  24) = (   0.7500035   0.1443423   0.0000000  )
        25           Al  tau(  25) = (   0.8750050   0.0721727   0.0000000  )
        26           Al  tau(  26) = (   0.6250038   0.3608502   0.0000000  )
        27           Al  tau(  27) = (   0.7500053   0.2886805   0.0000000  )
        28           Al  tau(  28) = (   0.5000041   0.5773581   0.0000000  )
        29           Al  tau(  29) = (   0.6250056   0.5051884   0.0000000  )
        30           Al  tau(  30) = (   0.3750044   0.7938660   0.0000000  )
        31           Al  tau(  31) = (   0.5000059   0.7216963   0.0000000  )

     number of k points=     1  Methfessel-Paxton smearing, width (Ry)=  0.0500
                       cart. coord. in units 2pi/alat
        k(    1) = (   0.0000000   0.0000000   0.0000000), wk =   2.0000000

     Dense  grid:  3588803 G-vectors     FFT dimensions: ( 192, 192, 216)

     Estimated max dynamical RAM per process >       1.15 GB

     Estimated total dynamical RAM >       9.23 GB

     Initial potential from superposition of free atoms

     starting charge   92.92414, renormalised to   93.00000

     negative rho (up, down):  9.278E-05 0.000E+00
     Starting wfcs are  124 randomized atomic wfcs

     total cpu time spent up to now is       28.7 secs

     Self-consistent Calculation

     iteration #  1     ecut=    80.00 Ry     beta= 0.40
     Davidson diagonalization with overlap
     ethr =  1.00E-02,  avg # of iterations =  2.0

     total cpu time spent up to now is       55.4 secs

     total energy              =    -140.64104985 Ry
     Harris-Foulkes estimate   =    -141.23598990 Ry
     estimated scf accuracy    <       1.55037127 Ry

     iteration #  2     ecut=    80.00 Ry     beta= 0.40
     Davidson diagonalization with overlap
     ethr =  1.67E-03,  avg # of iterations =  5.0

     negative rho (up, down):  7.691E-08 0.000E+00

     total cpu time spent up to now is       83.5 secs

     total energy              =    -140.21630086 Ry
     Harris-Foulkes estimate   =    -141.46231353 Ry
     estimated scf accuracy    <       6.80190972 Ry

     iteration #  3     ecut=    80.00 Ry     beta= 0.40
     Davidson diagonalization with overlap
     ethr =  1.67E-03,  avg # of iterations =  5.0

     negative rho (up, down):  1.834E-05 0.000E+00

     total cpu time spent up to now is      110.7 secs

     total energy              =    -140.82891083 Ry
     Harris-Foulkes estimate   =    -141.02217537 Ry
     estimated scf accuracy    <       1.16015563 Ry

     iteration #  4     ecut=    80.00 Ry     beta= 0.40
     Davidson diagonalization with overlap
     ethr =  1.25E-03,  avg # of iterations =  1.0

     negative rho (up, down):  3.674E-05 0.000E+00

     total cpu time spent up to now is      130.6 secs

     total energy              =    -140.90093404 Ry
     Harris-Foulkes estimate   =    -140.94400088 Ry
     estimated scf accuracy    <       0.14790024 Ry

     iteration #  5     ecut=    80.00 Ry     beta= 0.40
     Davidson diagonalization with overlap
     ethr =  1.59E-04,  avg # of iterations =  5.0

     negative rho (up, down):  4.323E-05 0.000E+00

     total cpu time spent up to now is      155.2 secs

     total energy              =    -140.91339994 Ry
     Harris-Foulkes estimate   =    -140.95555973 Ry
     estimated scf accuracy    <       0.30295355 Ry

     iteration #  6     ecut=    80.00 Ry     beta= 0.40
     Davidson diagonalization with overlap
     ethr =  1.59E-04,  avg # of iterations =  3.0

     negative rho (up, down):  6.046E-05 0.000E+00

     total cpu time spent up to now is      176.1 secs

     total energy              =    -140.93251514 Ry
     Harris-Foulkes estimate   =    -140.93471425 Ry
     estimated scf accuracy    <       0.00971310 Ry

     iteration #  7     ecut=    80.00 Ry     beta= 0.40
     Davidson diagonalization with overlap
     ethr =  1.04E-05,  avg # of iterations = 11.0

     negative rho (up, down):  7.732E-05 0.000E+00

     total cpu time spent up to now is      211.2 secs

     total energy              =    -140.93548471 Ry
     Harris-Foulkes estimate   =    -140.93683133 Ry
     estimated scf accuracy    <       0.00673468 Ry

     iteration #  8     ecut=    80.00 Ry     beta= 0.40
     Davidson diagonalization with overlap
     ethr =  7.24E-06,  avg # of iterations =  4.0

     negative rho (up, down):  8.151E-05 0.000E+00

     total cpu time spent up to now is      237.0 secs

     total energy              =    -140.93527569 Ry
     Harris-Foulkes estimate   =    -140.93711122 Ry
     estimated scf accuracy    <       0.01283095 Ry

     iteration #  9     ecut=    80.00 Ry     beta= 0.40
     Davidson diagonalization with overlap
     ethr =  7.24E-06,  avg # of iterations =  3.0

     negative rho (up, down):  8.270E-05 0.000E+00

     total cpu time spent up to now is      259.2 secs

     total energy              =    -140.93586617 Ry
     Harris-Foulkes estimate   =    -140.93619226 Ry
     estimated scf accuracy    <       0.00178700 Ry

     iteration # 10     ecut=    80.00 Ry     beta= 0.40
     Davidson diagonalization with overlap
     ethr =  1.92E-06,  avg # of iterations =  4.0

     negative rho (up, down):  8.477E-05 0.000E+00

     total cpu time spent up to now is      282.6 secs

     total energy              =    -140.93604248 Ry
     Harris-Foulkes estimate   =    -140.93610192 Ry
     estimated scf accuracy    <       0.00027797 Ry

     iteration # 11     ecut=    80.00 Ry     beta= 0.40
     Davidson diagonalization with overlap
     ethr =  2.99E-07,  avg # of iterations =  5.0

     negative rho (up, down):  8.533E-05 0.000E+00

     total cpu time spent up to now is      309.4 secs

     total energy              =    -140.93609445 Ry
     Harris-Foulkes estimate   =    -140.93612594 Ry
     estimated scf accuracy    <       0.00014137 Ry

     iteration # 12     ecut=    80.00 Ry     beta= 0.40
     Davidson diagonalization with overlap
     ethr =  1.52E-07,  avg # of iterations =  4.0

     negative rho (up, down):  8.595E-05 0.000E+00

     total cpu time spent up to now is      332.7 secs

     total energy              =    -140.93610429 Ry
     Harris-Foulkes estimate   =    -140.93612709 Ry
     estimated scf accuracy    <       0.00014769 Ry

     iteration # 13     ecut=    80.00 Ry     beta= 0.40
     Davidson diagonalization with overlap
     ethr =  1.52E-07,  avg # of iterations =  3.0

     negative rho (up, down):  8.623E-05 0.000E+00

     total cpu time spent up to now is      354.5 secs

     total energy              =    -140.93611412 Ry
     Harris-Foulkes estimate   =    -140.93611723 Ry
     estimated scf accuracy    <       0.00001575 Ry

     iteration # 14     ecut=    80.00 Ry     beta= 0.40
     Davidson diagonalization with overlap
     ethr =  1.69E-08,  avg # of iterations =  5.0

     negative rho (up, down):  8.641E-05 0.000E+00

     total cpu time spent up to now is      378.8 secs

     total energy              =    -140.93611682 Ry
     Harris-Foulkes estimate   =    -140.93611780 Ry
     estimated scf accuracy    <       0.00000468 Ry

     iteration # 15     ecut=    80.00 Ry     beta= 0.40
     Davidson diagonalization with overlap
     ethr =  5.04E-09,  avg # of iterations =  4.0

     negative rho (up, down):  8.648E-05 0.000E+00

     total cpu time spent up to now is      403.0 secs

     total energy              =    -140.93611692 Ry
     Harris-Foulkes estimate   =    -140.93611770 Ry
     estimated scf accuracy    <       0.00000479 Ry

     iteration # 16     ecut=    80.00 Ry     beta= 0.40
     Davidson diagonalization with overlap
     ethr =  5.04E-09,  avg # of iterations =  1.0

     negative rho (up, down):  8.656E-05 0.000E+00

     total cpu time spent up to now is      423.4 secs

     total energy              =    -140.93611714 Ry
     Harris-Foulkes estimate   =    -140.93611740 Ry
     estimated scf accuracy    <       0.00000110 Ry

     iteration # 17     ecut=    80.00 Ry     beta= 0.40
     Davidson diagonalization with overlap
     ethr =  1.18E-09,  avg # of iterations =  5.0

     negative rho (up, down):  8.663E-05 0.000E+00

     total cpu time spent up to now is      448.6 secs

     End of self-consistent calculation

          k = 0.0000 0.0000 0.0000 (448403 PWs)   bands (ev):

    -9.9528  -9.4483  -9.4331  -9.4326  -9.4260  -9.4255  -9.1459  -8.4048
    -8.4046  -8.3881  -8.3881  -8.3797  -8.3031  -8.2571  -8.2569  -7.5864
    -6.9324  -6.9323  -6.8232  -6.4865  -6.4772  -6.4770  -6.3702  -6.3700
    -5.4640  -4.8435  -4.8433  -4.8368  -4.7357  -4.7353  -4.4780  -4.4681
    -4.4427  -4.4427  -4.1225  -4.1222  -3.9778  -3.4712  -3.4688  -3.4685
    -3.4576  -3.4573  -3.4018  -3.2745  -3.2741  -3.2224  -3.2075  -2.9742
    -2.9652  -2.9651  -2.9388  -2.5199  -2.5195  -2.4495  -2.4484  -2.4314

     the Fermi energy is    -3.0910 ev

!    total energy              =    -140.93611667 Ry
     Harris-Foulkes estimate   =    -140.93611735 Ry
     estimated scf accuracy    <       0.00000077 Ry

     The total energy is the sum of the following terms:

     one-electron contribution =    -502.03465267 Ry
     hartree contribution      =     259.76170542 Ry
     xc contribution           =     -61.33559310 Ry
     ewald contribution        =     162.75341060 Ry
     smearing contrib. (-TS)   =      -0.08098692 Ry

     convergence has been achieved in  17 iterations

     negative rho (up, down):  8.663E-05 0.000E+00

     Forces acting on atoms (cartesian axes, Ry/au):

     atom    1 type  1   force =     0.00203363    0.00117578    0.00000000
     atom    2 type  1   force =    -0.00159067   -0.00516092    0.00000000
     atom    3 type  1   force =    -0.00060938   -0.00327290    0.00000000
     atom    4 type  1   force =    -0.00529403    0.00124135    0.00000000
     atom    5 type  1   force =    -0.01313417    0.00753305    0.00000000
     atom    6 type  1   force =    -0.00314531    0.00106727    0.00000000
     atom    7 type  1   force =     0.00000000   -0.01514319    0.00000000
     atom    8 type  1   force =     0.00000000    0.00215467    0.00000000
     atom    9 type  1   force =     0.00159067   -0.00516092    0.00000000
     atom   10 type  1   force =     0.00185942   -0.00108462    0.00000000
     atom   11 type  1   force =     0.00000000    0.00001855    0.00000000
     atom   12 type  1   force =     0.00256201    0.00217950    0.00000000
     atom   13 type  1   force =    -0.00371706    0.00396303    0.00000000
     atom   14 type  1   force =     0.00314531    0.00106727    0.00000000
     atom   15 type  1   force =    -0.00110614   -0.00062965    0.00000000
     atom   16 type  1   force =    -0.00203363    0.00117578    0.00000000
     atom   17 type  1   force =    -0.00042904    0.00030206    0.00000000
     atom   18 type  1   force =    -0.00185942   -0.00108462    0.00000000
     atom   19 type  1   force =     0.00529403    0.00124135    0.00000000
     atom   20 type  1   force =     0.00000000   -0.00230596    0.00000000
     atom   21 type  1   force =     0.00371706    0.00396303    0.00000000
     atom   22 type  1   force =     0.00112767    0.00058953    0.00000000
     atom   23 type  1   force =     0.00000000   -0.00052449    0.00000000
     atom   24 type  1   force =     0.00000000   -0.00132460    0.00000000
     atom   25 type  1   force =     0.00042904    0.00030206    0.00000000
     atom   26 type  1   force =     0.00060938   -0.00327290    0.00000000
     atom   27 type  1   force =     0.00000000    0.00131808    0.00000000
     atom   28 type  1   force =    -0.00256201    0.00217950    0.00000000
     atom   29 type  1   force =     0.01313417    0.00753305    0.00000000
     atom   30 type  1   force =    -0.00112767    0.00058953    0.00000000
     atom   31 type  1   force =     0.00110614   -0.00062965    0.00000000

     Total force =     0.031181     Total SCF correction =     0.000682


     Computing stress (Cartesian axis) and pressure


     negative rho (up, down):  8.663E-05 0.000E+00
          total   stress  (Ry/bohr**3)                   (kbar)     P=   -0.57
  -0.00000582   0.00000000   0.00000000         -0.86      0.00      0.00
   0.00000000  -0.00000576   0.00000000          0.00     -0.85      0.00
   0.00000000   0.00000000  -0.00000001          0.00      0.00     -0.00


     BFGS Geometry Optimization

     number of scf cycles    =   1
     number of bfgs steps    =   0

     enthalpy new            =    -140.9361166679 Ry

     new trust radius        =       0.0151431878 bohr
     new conv_thr            =       0.0000010000 Ry

     new unit-cell volume =  37119.56581 a.u.^3 (  5500.55208 Ang^3 )
     density =      0.28059 g/cm^3

CELL_PARAMETERS (alat= 33.68096681)
   0.999854618  -0.000000000   0.000000000
  -0.499927309   0.865900654   0.000000000
   0.000000000   0.000000000   1.122132950

ATOMIC_POSITIONS (angstrom)
Al       0.001075407   2.572839395   0.000000000
Al       2.226761216   1.283377492   0.000000000
Al      -2.227893756   6.428792834   0.000000000
Al      -0.002768977   5.145072174   0.000000000
Al      -2.234487944   9.006708360   0.000000000
Al      -6.684377006  14.147703695   0.000000000
Al      -4.455109397  12.853017575   0.000000000
Al       4.455172414   2.573375524   0.000000000
Al       6.683617464   1.283395686   0.000000000
Al       2.228585490   6.429968846   0.000000000
Al       4.455205094   5.144443386   0.000000000
Al       0.001386482  10.290003137   0.000000000
Al       2.225667650   9.004837649   0.000000000
Al      -2.225875640  14.147721889   0.000000000
Al      -0.000521658  12.860714892   0.000000000
Al       8.909269421   2.572875782   0.000000000
Al      11.137721837   1.286304344   0.000000000
Al       6.681790846   6.429987040   0.000000000
Al       8.913179165   5.145108560   0.000000000
Al       4.455203922  10.287648064   0.000000000
Al       6.684774047   9.004855843   0.000000000
Al       2.228229826  14.147487308   0.000000000
Al       4.455236603  12.860788730   0.000000000
Al      13.365518414   2.571571022   0.000000000
Al      15.593348842   1.286322538   0.000000000
Al      11.138270092   6.428847414   0.000000000
Al      13.365551094   5.145167353   0.000000000
Al       8.909021362  10.290039523   0.000000000
Al      11.144929641   9.006762940   0.000000000
Al       6.682209527  14.147505501   0.000000000
Al       8.910994864  12.860751279   0.000000000



     Writing output data file 5al_planar_2x2_vcr.save/
     NEW-OLD atomic charge density approx. for the potential

     negative rho (up, down):  8.664E-05 0.000E+00
     extrapolated charge   92.97310, renormalised to   93.00000

     total cpu time spent up to now is      521.5 secs

     Self-consistent Calculation

     iteration #  1     ecut=    80.00 Ry     beta= 0.40
     Davidson diagonalization with overlap
     ethr =  1.00E-06,  avg # of iterations =  4.0

     negative rho (up, down):  8.674E-05 0.000E+00

     total cpu time spent up to now is      550.4 secs

     total energy              =    -140.93703108 Ry
     Harris-Foulkes estimate   =    -141.07025254 Ry
     estimated scf accuracy    <       0.00015334 Ry

     iteration #  2     ecut=    80.00 Ry     beta= 0.40
     Davidson diagonalization with overlap
     ethr =  1.65E-07,  avg # of iterations =  5.0

     negative rho (up, down):  8.671E-05 0.000E+00

     total cpu time spent up to now is      579.3 secs

     total energy              =    -140.93693322 Ry
     Harris-Foulkes estimate   =    -140.93732118 Ry
     estimated scf accuracy    <       0.00319554 Ry

     iteration #  3     ecut=    80.00 Ry     beta= 0.40
     Davidson diagonalization with overlap
     ethr =  1.65E-07,  avg # of iterations =  5.0

     negative rho (up, down):  8.671E-05 0.000E+00

     total cpu time spent up to now is      605.9 secs

     total energy              =    -140.93711422 Ry
     Harris-Foulkes estimate   =    -140.93711981 Ry
     estimated scf accuracy    <       0.00002080 Ry

     iteration #  4     ecut=    80.00 Ry     beta= 0.40
     Davidson diagonalization with overlap
     ethr =  2.24E-08,  avg # of iterations =  4.0

     negative rho (up, down):  8.668E-05 0.000E+00

     total cpu time spent up to now is      630.1 secs

     total energy              =    -140.93711563 Ry
     Harris-Foulkes estimate   =    -140.93711973 Ry
     estimated scf accuracy    <       0.00001921 Ry

     iteration #  5     ecut=    80.00 Ry     beta= 0.40
     Davidson diagonalization with overlap
     ethr =  2.07E-08,  avg # of iterations =  2.0

     negative rho (up, down):  8.664E-05 0.000E+00

     total cpu time spent up to now is      650.1 secs

     total energy              =    -140.93711696 Ry
     Harris-Foulkes estimate   =    -140.93711906 Ry
     estimated scf accuracy    <       0.00001211 Ry

     iteration #  6     ecut=    80.00 Ry     beta= 0.40
     Davidson diagonalization with overlap
     ethr =  1.30E-08,  avg # of iterations =  1.0

     negative rho (up, down):  8.660E-05 0.000E+00

     total cpu time spent up to now is      669.8 secs

     total energy              =    -140.93711826 Ry
     Harris-Foulkes estimate   =    -140.93711834 Ry
     estimated scf accuracy    <       0.00000102 Ry

     iteration #  7     ecut=    80.00 Ry     beta= 0.40
     Davidson diagonalization with overlap
     ethr =  1.10E-09,  avg # of iterations =  5.0

     negative rho (up, down):  8.659E-05 0.000E+00

     total cpu time spent up to now is      696.2 secs

     total energy              =    -140.93711833 Ry
     Harris-Foulkes estimate   =    -140.93711863 Ry
     estimated scf accuracy    <       0.00000178 Ry

     iteration #  8     ecut=    80.00 Ry     beta= 0.40
     Davidson diagonalization with overlap
     ethr =  1.10E-09,  avg # of iterations =  4.0

     negative rho (up, down):  8.660E-05 0.000E+00

     total cpu time spent up to now is      718.1 secs

     End of self-consistent calculation

          k = 0.0000 0.0000 0.0000 (448403 PWs)   bands (ev):

    -9.9533  -9.4487  -9.4337  -9.4332  -9.4256  -9.4252  -9.1440  -8.4041
    -8.4039  -8.3846  -8.3845  -8.3829  -8.3050  -8.2546  -8.2545  -7.5852
    -6.9324  -6.9323  -6.8230  -6.4824  -6.4777  -6.4775  -6.3723  -6.3721
    -5.4694  -4.8397  -4.8396  -4.8351  -4.7366  -4.7363  -4.4766  -4.4673
    -4.4432  -4.4432  -4.1253  -4.1250  -3.9780  -3.4712  -3.4678  -3.4674
    -3.4584  -3.4580  -3.4001  -3.2733  -3.2730  -3.2212  -3.2176  -2.9704
    -2.9636  -2.9635  -2.9412  -2.5172  -2.5169  -2.4463  -2.4453  -2.4337

     the Fermi energy is    -3.0908 ev

!    total energy              =    -140.93711774 Ry
     Harris-Foulkes estimate   =    -140.93711846 Ry
     estimated scf accuracy    <       0.00000085 Ry

     The total energy is the sum of the following terms:

     one-electron contribution =    -502.12492274 Ry
     hartree contribution      =     259.80742801 Ry
     xc contribution           =     -61.33397980 Ry
     ewald contribution        =     162.79502800 Ry
     smearing contrib. (-TS)   =      -0.08067121 Ry

     convergence has been achieved in   8 iterations

     negative rho (up, down):  8.660E-05 0.000E+00

     Forces acting on atoms (cartesian axes, Ry/au):

     atom    1 type  1   force =     0.00199922    0.00114211    0.00000000
     atom    2 type  1   force =    -0.00117059   -0.00438323    0.00000000
     atom    3 type  1   force =    -0.00069223   -0.00197796    0.00000000
     atom    4 type  1   force =    -0.00444167    0.00120277    0.00000000
     atom    5 type  1   force =    -0.01297591    0.00744919    0.00000000
     atom    6 type  1   force =    -0.00206588    0.00037583    0.00000000
     atom    7 type  1   force =    -0.00000000   -0.01498594    0.00000000
     atom    8 type  1   force =     0.00000000    0.00158549    0.00000000
     atom    9 type  1   force =     0.00117059   -0.00438323    0.00000000
     atom   10 type  1   force =     0.00139032   -0.00080759    0.00000000
     atom   11 type  1   force =    -0.00000000   -0.00000177    0.00000000
     atom   12 type  1   force =     0.00139332    0.00159288    0.00000000
     atom   13 type  1   force =    -0.00327372    0.00323034    0.00000000
     atom   14 type  1   force =     0.00206588    0.00037583    0.00000000
     atom   15 type  1   force =    -0.00078641   -0.00045593    0.00000000
     atom   16 type  1   force =    -0.00199922    0.00114211    0.00000000
     atom   17 type  1   force =    -0.00062767    0.00042186    0.00000000
     atom   18 type  1   force =    -0.00139032   -0.00080759    0.00000000
     atom   19 type  1   force =     0.00444167    0.00120277    0.00000000
     atom   20 type  1   force =    -0.00000000   -0.00226159    0.00000000
     atom   21 type  1   force =     0.00327372    0.00323034    0.00000000
     atom   22 type  1   force =     0.00090434    0.00047814    0.00000000
     atom   23 type  1   force =    -0.00000000   -0.00075022    0.00000000
     atom   24 type  1   force =    -0.00000000   -0.00107427    0.00000000
     atom   25 type  1   force =     0.00062767    0.00042186    0.00000000
     atom   26 type  1   force =     0.00069223   -0.00197796    0.00000000
     atom   27 type  1   force =     0.00000000    0.00095148    0.00000000
     atom   28 type  1   force =    -0.00139332    0.00159288    0.00000000
     atom   29 type  1   force =     0.01297591    0.00744919    0.00000000
     atom   30 type  1   force =    -0.00090434    0.00047814    0.00000000
     atom   31 type  1   force =     0.00078641   -0.00045593    0.00000000

     Total force =     0.029251     Total SCF correction =     0.000760


     Computing stress (Cartesian axis) and pressure


     negative rho (up, down):  8.660E-05 0.000E+00
          total   stress  (Ry/bohr**3)                   (kbar)     P=   -0.58
  -0.00000595  -0.00000000   0.00000000         -0.87     -0.00      0.00
   0.00000000  -0.00000589   0.00000000          0.00     -0.87      0.00
   0.00000000   0.00000000   0.00000001          0.00      0.00      0.00


     number of scf cycles    =   2
     number of bfgs steps    =   1

     enthalpy old            =    -140.9361166679 Ry
     enthalpy new            =    -140.9371177372 Ry

     CASE: enthalpy_new < enthalpy_old


     WARNING: bfgs curvature condition failed, Theta= 0.854
     new trust radius        =       0.0227115097 bohr
     new conv_thr            =       0.0000010000 Ry

     new unit-cell volume =  37103.12305 a.u.^3 (  5498.11551 Ang^3 )
     density =      0.28071 g/cm^3

CELL_PARAMETERS (alat= 33.68096681)
   0.999632134  -0.000000000   0.000000000
  -0.499816067   0.865709722   0.000000000
   0.000000000   0.000000000   1.122132950

ATOMIC_POSITIONS (angstrom)
Al       0.002682292   2.573194535   0.000000000
Al       2.225201036   1.279353738   0.000000000
Al      -2.227925175   6.425395294   0.000000000
Al      -0.006578873   5.144910093   0.000000000
Al      -2.244401641   9.010696916   0.000000000
Al      -6.684873166  14.145098071   0.000000000
Al      -4.454118064  12.838167712   0.000000000
Al       4.454181067   2.574250225   0.000000000
Al       6.683194944   1.279371928   0.000000000
Al       2.229344914   6.427820450   0.000000000
Al       4.454213740   5.143313903   0.000000000
Al       0.002860244  10.289187607   0.000000000
Al       2.222421054   9.005658282   0.000000000
Al      -2.223396807  14.145116260   0.000000000
Al      -0.001248414  12.857461281   0.000000000
Al       8.905679843   2.573230913   0.000000000
Al      11.134803717   1.286320544   0.000000000
Al       6.679048722   6.427838639   0.000000000
Al       8.915006353   5.144946472   0.000000000
Al       4.454212569  10.283559899   0.000000000
Al       6.686037928   9.005676471   0.000000000
Al       2.228525238  14.144784047   0.000000000
Al       4.454245242  12.857423630   0.000000000
Al      13.362544373   2.570068704   0.000000000
Al      15.590318874   1.286338733   0.000000000
Al      11.136318811   6.425449862   0.000000000
Al      13.362577046   5.144906028   0.000000000
Al       8.905564894  10.289223986   0.000000000
Al      11.152860623   9.010751484   0.000000000
Al       6.679931401  14.144802236   0.000000000
Al       8.909738897  12.857497660   0.000000000



     Writing output data file 5al_planar_2x2_vcr.save/
     NEW-OLD atomic charge density approx. for the potential

     negative rho (up, down):  8.661E-05 0.000E+00
     extrapolated charge   92.95882, renormalised to   93.00000

     total cpu time spent up to now is      787.9 secs

     Self-consistent Calculation

     iteration #  1     ecut=    80.00 Ry     beta= 0.40
     Davidson diagonalization with overlap
     ethr =  1.00E-06,  avg # of iterations =  4.0

     negative rho (up, down):  8.678E-05 0.000E+00

     total cpu time spent up to now is      818.1 secs

     total energy              =    -140.93840422 Ry
     Harris-Foulkes estimate   =    -141.14233501 Ry
     estimated scf accuracy    <       0.00014374 Ry

     iteration #  2     ecut=    80.00 Ry     beta= 0.40
     Davidson diagonalization with overlap
     ethr =  1.55E-07,  avg # of iterations =  5.0

     negative rho (up, down):  8.673E-05 0.000E+00

     total cpu time spent up to now is      846.5 secs

     total energy              =    -140.93836152 Ry
     Harris-Foulkes estimate   =    -140.93860299 Ry
     estimated scf accuracy    <       0.00176271 Ry

     iteration #  3     ecut=    80.00 Ry     beta= 0.40
     Davidson diagonalization with overlap
     ethr =  1.55E-07,  avg # of iterations =  5.0

     negative rho (up, down):  8.669E-05 0.000E+00

     total cpu time spent up to now is      872.1 secs

     total energy              =    -140.93847925 Ry
     Harris-Foulkes estimate   =    -140.93848823 Ry
     estimated scf accuracy    <       0.00004141 Ry

     iteration #  4     ecut=    80.00 Ry     beta= 0.40
     Davidson diagonalization with overlap
     ethr =  4.45E-08,  avg # of iterations =  3.0

     negative rho (up, down):  8.665E-05 0.000E+00

     total cpu time spent up to now is      892.9 secs

     total energy              =    -140.93848027 Ry
     Harris-Foulkes estimate   =    -140.93848510 Ry
     estimated scf accuracy    <       0.00001910 Ry

     iteration #  5     ecut=    80.00 Ry     beta= 0.40
     Davidson diagonalization with overlap
     ethr =  2.05E-08,  avg # of iterations =  4.0

     negative rho (up, down):  8.660E-05 0.000E+00

     total cpu time spent up to now is      916.4 secs

     total energy              =    -140.93848080 Ry
     Harris-Foulkes estimate   =    -140.93848617 Ry
     estimated scf accuracy    <       0.00003512 Ry

     iteration #  6     ecut=    80.00 Ry     beta= 0.40
     Davidson diagonalization with overlap
     ethr =  2.05E-08,  avg # of iterations =  3.0

     negative rho (up, down):  8.656E-05 0.000E+00

     total cpu time spent up to now is      937.3 secs

     total energy              =    -140.93848357 Ry
     Harris-Foulkes estimate   =    -140.93848403 Ry
     estimated scf accuracy    <       0.00000287 Ry

     iteration #  7     ecut=    80.00 Ry     beta= 0.40
     Davidson diagonalization with overlap
     ethr =  3.09E-09,  avg # of iterations =  5.0

     negative rho (up, down):  8.655E-05 0.000E+00

     total cpu time spent up to now is      961.4 secs

     total energy              =    -140.93848349 Ry
     Harris-Foulkes estimate   =    -140.93848465 Ry
     estimated scf accuracy    <       0.00000796 Ry

     iteration #  8     ecut=    80.00 Ry     beta= 0.40
     Davidson diagonalization with overlap
     ethr =  3.09E-09,  avg # of iterations =  4.0

     negative rho (up, down):  8.653E-05 0.000E+00

     total cpu time spent up to now is      982.7 secs

     End of self-consistent calculation

          k = 0.0000 0.0000 0.0000 (448403 PWs)   bands (ev):

    -9.9541  -9.4493  -9.4355  -9.4352  -9.4239  -9.4237  -9.1415  -8.4033
    -8.4032  -8.3870  -8.3801  -8.3800  -8.3071  -8.2509  -8.2508  -7.5837
    -6.9324  -6.9323  -6.8228  -6.4780  -6.4779  -6.4767  -6.3751  -6.3749
    -5.4773  -4.8345  -4.8344  -4.8326  -4.7375  -4.7373  -4.4748  -4.4662
    -4.4436  -4.4436  -4.1292  -4.1290  -3.9782  -3.4713  -3.4670  -3.4666
    -3.4588  -3.4584  -3.3975  -3.2716  -3.2712  -3.2328  -3.2197  -2.9652
    -2.9611  -2.9610  -2.9436  -2.5135  -2.5132  -2.4417  -2.4411  -2.4366

     the Fermi energy is    -3.0906 ev

!    total energy              =    -140.93848384 Ry
     Harris-Foulkes estimate   =    -140.93848415 Ry
     estimated scf accuracy    <       0.00000048 Ry

     The total energy is the sum of the following terms:

     one-electron contribution =    -502.26119543 Ry
     hartree contribution      =     259.87507451 Ry
     xc contribution           =     -61.33156513 Ry
     ewald contribution        =     162.85935313 Ry
     smearing contrib. (-TS)   =      -0.08015093 Ry

     convergence has been achieved in   8 iterations

     negative rho (up, down):  8.653E-05 0.000E+00

     Forces acting on atoms (cartesian axes, Ry/au):

     atom    1 type  1   force =     0.00193768    0.00110122    0.00000000
     atom    2 type  1   force =    -0.00065547   -0.00339199    0.00000000
     atom    3 type  1   force =    -0.00079594   -0.00020848    0.00000000
     atom    4 type  1   force =    -0.00332311    0.00115005    0.00000000
     atom    5 type  1   force =    -0.01282937    0.00737969    0.00000000
     atom    6 type  1   force =    -0.00060773   -0.00058275    0.00000000
     atom    7 type  1   force =    -0.00000000   -0.01484086    0.00000000
     atom    8 type  1   force =     0.00000000    0.00085002    0.00000000
     atom    9 type  1   force =     0.00065547   -0.00339199    0.00000000
     atom   10 type  1   force =     0.00075856   -0.00042474    0.00000000
     atom   11 type  1   force =    -0.00000000   -0.00000713    0.00000000
     atom   12 type  1   force =    -0.00019854    0.00079747    0.00000000
     atom   13 type  1   force =    -0.00266598    0.00228793    0.00000000
     atom   14 type  1   force =     0.00060773   -0.00058275    0.00000000
     atom   15 type  1   force =    -0.00038780   -0.00023885    0.00000000
     atom   16 type  1   force =    -0.00193768    0.00110122    0.00000000
     atom   17 type  1   force =    -0.00089200    0.00055760    0.00000000
     atom   18 type  1   force =    -0.00075856   -0.00042474    0.00000000
     atom   19 type  1   force =     0.00332311    0.00115005    0.00000000
     atom   20 type  1   force =    -0.00000000   -0.00219742    0.00000000
     atom   21 type  1   force =     0.00266598    0.00228793    0.00000000
     atom   22 type  1   force =     0.00061805    0.00033241    0.00000000
     atom   23 type  1   force =    -0.00000000   -0.00106143    0.00000000
     atom   24 type  1   force =    -0.00000000   -0.00072377    0.00000000
     atom   25 type  1   force =     0.00089200    0.00055760    0.00000000
     atom   26 type  1   force =     0.00079594   -0.00020848    0.00000000
     atom   27 type  1   force =     0.00000000    0.00046145    0.00000000
     atom   28 type  1   force =     0.00019854    0.00079747    0.00000000
     atom   29 type  1   force =     0.01282937    0.00737969    0.00000000
     atom   30 type  1   force =    -0.00061805    0.00033241    0.00000000
     atom   31 type  1   force =     0.00038780   -0.00023885    0.00000000

     Total force =     0.027536     Total SCF correction =     0.000463


     Computing stress (Cartesian axis) and pressure


     negative rho (up, down):  8.653E-05 0.000E+00
          total   stress  (Ry/bohr**3)                   (kbar)     P=   -0.60
  -0.00000611  -0.00000000   0.00000000         -0.90     -0.00      0.00
  -0.00000000  -0.00000607   0.00000000         -0.00     -0.89      0.00
   0.00000000   0.00000000   0.00000002          0.00      0.00      0.00


     number of scf cycles    =   3
     number of bfgs steps    =   2

     enthalpy old            =    -140.9371177372 Ry
     enthalpy new            =    -140.9384838400 Ry

     CASE: enthalpy_new < enthalpy_old

     new trust radius        =       0.0340597526 bohr
     new conv_thr            =       0.0000010000 Ry

     new unit-cell volume =  37077.96646 a.u.^3 (  5494.38769 Ang^3 )
     density =      0.28090 g/cm^3

CELL_PARAMETERS (alat= 33.68096681)
   0.999291892  -0.000000000   0.000000000
  -0.499645946   0.865417315   0.000000000
   0.000000000   0.000000000   1.122132950

ATOMIC_POSITIONS (angstrom)
Al       0.005063772   2.573690102   0.000000000
Al       2.223156572   1.273897845   0.000000000
Al      -2.228025090   6.421341840   0.000000000
Al      -0.011624964   5.144604665   0.000000000
Al      -2.259236293   9.016614394   0.000000000
Al      -6.684680831  14.140498055   0.000000000
Al      -4.452602026  12.815813866   0.000000000
Al       4.452665008   2.575098617   0.000000000
Al       6.682207276   1.273916028   0.000000000
Al       2.230085235   6.424786834   0.000000000
Al       4.452697670   5.141581881   0.000000000
Al       0.004090887  10.287407975   0.000000000
Al       2.217897120   9.006261835   0.000000000
Al      -2.220557055  14.140516238   0.000000000
Al      -0.002097400  12.852622825   0.000000000
Al       8.900266244   2.573726468   0.000000000
Al      11.130187207   1.286420706   0.000000000
Al       6.675276271   6.424805017   0.000000000
Al       8.917020303   5.144641032   0.000000000
Al       4.452696498  10.277384781   0.000000000
Al       6.687529710   9.006280018   0.000000000
Al       2.228781886  14.140543370   0.000000000
Al       4.452729160  12.852089753   0.000000000
Al      13.357996194   2.568009794   0.000000000
Al      15.585839015   1.286438890   0.000000000
Al      11.133386596   6.421396390   0.000000000
Al      13.358028856   5.144179823   0.000000000
Al       8.901302110  10.287444341   0.000000000
Al      11.164663123   9.016668944   0.000000000
Al       6.676642602  14.140561553   0.000000000
Al       8.907555720  12.852659192   0.000000000



     Writing output data file 5al_planar_2x2_vcr.save/
     NEW-OLD atomic charge density approx. for the potential

     negative rho (up, down):  8.656E-05 0.000E+00
     extrapolated charge   92.93695, renormalised to   93.00000

     total cpu time spent up to now is     1054.1 secs

     Self-consistent Calculation

     iteration #  1     ecut=    80.00 Ry     beta= 0.40
     Davidson diagonalization with overlap
     ethr =  1.00E-06,  avg # of iterations =  5.0

     negative rho (up, down):  8.684E-05 0.000E+00

     total cpu time spent up to now is     1092.5 secs

     total energy              =    -140.94024366 Ry
     Harris-Foulkes estimate   =    -141.25256656 Ry
     estimated scf accuracy    <       0.00019197 Ry

     iteration #  2     ecut=    80.00 Ry     beta= 0.40
     Davidson diagonalization with overlap
     ethr =  2.06E-07,  avg # of iterations =  5.0

     negative rho (up, down):  8.678E-05 0.000E+00

     total cpu time spent up to now is     1124.9 secs

     total energy              =    -140.94023572 Ry
     Harris-Foulkes estimate   =    -140.94046776 Ry
     estimated scf accuracy    <       0.00164190 Ry

     iteration #  3     ecut=    80.00 Ry     beta= 0.40
     Davidson diagonalization with overlap
     ethr =  2.06E-07,  avg # of iterations =  5.0

     negative rho (up, down):  8.669E-05 0.000E+00

     total cpu time spent up to now is     1150.4 secs

     total energy              =    -140.94034606 Ry
     Harris-Foulkes estimate   =    -140.94036398 Ry
     estimated scf accuracy    <       0.00009093 Ry

     iteration #  4     ecut=    80.00 Ry     beta= 0.40
     Davidson diagonalization with overlap
     ethr =  9.78E-08,  avg # of iterations =  3.0

     negative rho (up, down):  8.665E-05 0.000E+00

     total cpu time spent up to now is     1172.5 secs

     total energy              =    -140.94034877 Ry
     Harris-Foulkes estimate   =    -140.94035500 Ry
     estimated scf accuracy    <       0.00002374 Ry

     iteration #  5     ecut=    80.00 Ry     beta= 0.40
     Davidson diagonalization with overlap
     ethr =  2.55E-08,  avg # of iterations =  4.0

     negative rho (up, down):  8.658E-05 0.000E+00

     total cpu time spent up to now is     1200.5 secs

     total energy              =    -140.94034638 Ry
     Harris-Foulkes estimate   =    -140.94035936 Ry
     estimated scf accuracy    <       0.00008780 Ry

     iteration #  6     ecut=    80.00 Ry     beta= 0.40
     Davidson diagonalization with overlap
     ethr =  2.55E-08,  avg # of iterations =  4.0

     negative rho (up, down):  8.653E-05 0.000E+00

     total cpu time spent up to now is     1224.0 secs

     total energy              =    -140.94035307 Ry
     Harris-Foulkes estimate   =    -140.94035399 Ry
     estimated scf accuracy    <       0.00000696 Ry

     iteration #  7     ecut=    80.00 Ry     beta= 0.40
     Davidson diagonalization with overlap
     ethr =  7.49E-09,  avg # of iterations =  4.0

     negative rho (up, down):  8.651E-05 0.000E+00

     total cpu time spent up to now is     1248.0 secs

     total energy              =    -140.94035345 Ry
     Harris-Foulkes estimate   =    -140.94035421 Ry
     estimated scf accuracy    <       0.00000468 Ry

     iteration #  8     ecut=    80.00 Ry     beta= 0.40
     Davidson diagonalization with overlap
     ethr =  5.03E-09,  avg # of iterations =  1.0

     negative rho (up, down):  8.645E-05 0.000E+00

     total cpu time spent up to now is     1268.6 secs

     End of self-consistent calculation

          k = 0.0000 0.0000 0.0000 (448403 PWs)   bands (ev):

    -9.9553  -9.4502  -9.4390  -9.4387  -9.4211  -9.4209  -9.1385  -8.4026
    -8.4025  -8.3922  -8.3747  -8.3744  -8.3099  -8.2451  -8.2450  -7.5820
    -6.9327  -6.9327  -6.8229  -6.4782  -6.4781  -6.4692  -6.3784  -6.3782
    -5.4887  -4.8293  -4.8276  -4.8276  -4.7383  -4.7380  -4.4724  -4.4646
    -4.4443  -4.4443  -4.1351  -4.1348  -3.9787  -3.4715  -3.4672  -3.4667
    -3.4580  -3.4577  -3.3938  -3.2690  -3.2686  -3.2554  -3.2179  -2.9602
    -2.9574  -2.9573  -2.9441  -2.5084  -2.5081  -2.4403  -2.4359  -2.4355

     the Fermi energy is    -3.0902 ev

!    total energy              =    -140.94035352 Ry
     Harris-Foulkes estimate   =    -140.94035397 Ry
     estimated scf accuracy    <       0.00000078 Ry

     The total energy is the sum of the following terms:

     one-electron contribution =    -502.46974185 Ry
     hartree contribution      =     259.97827576 Ry
     xc contribution           =     -61.32824319 Ry
     ewald contribution        =     162.95867727 Ry
     smearing contrib. (-TS)   =      -0.07932150 Ry

     convergence has been achieved in   8 iterations

     negative rho (up, down):  8.645E-05 0.000E+00

     Forces acting on atoms (cartesian axes, Ry/au):

     atom    1 type  1   force =     0.00187355    0.00108588    0.00000000
     atom    2 type  1   force =    -0.00002677   -0.00216607    0.00000000
     atom    3 type  1   force =    -0.00089405    0.00210628    0.00000000
     atom    4 type  1   force =    -0.00191673    0.00107361    0.00000000
     atom    5 type  1   force =    -0.01278316    0.00734846    0.00000000
     atom    6 type  1   force =     0.00134348   -0.00182657    0.00000000
     atom    7 type  1   force =    -0.00000000   -0.01477492    0.00000000
     atom    8 type  1   force =    -0.00000000   -0.00004539    0.00000000
     atom    9 type  1   force =     0.00002677   -0.00216607    0.00000000
     atom   10 type  1   force =    -0.00003866    0.00002732    0.00000000
     atom   11 type  1   force =    -0.00000000   -0.00000154    0.00000000
     atom   12 type  1   force =    -0.00225826   -0.00027228    0.00000000
     atom   13 type  1   force =    -0.00187331    0.00111469    0.00000000
     atom   14 type  1   force =    -0.00134348   -0.00182657    0.00000000
     atom   15 type  1   force =     0.00010635    0.00006301    0.00000000
     atom   16 type  1   force =    -0.00187355    0.00108588    0.00000000
     atom   17 type  1   force =    -0.00120916    0.00072270    0.00000000
     atom   18 type  1   force =     0.00003866    0.00002732    0.00000000
     atom   19 type  1   force =     0.00191673    0.00107361    0.00000000
     atom   20 type  1   force =    -0.00000000   -0.00213127    0.00000000
     atom   21 type  1   force =     0.00187331    0.00111469    0.00000000
     atom   22 type  1   force =     0.00028647    0.00012182    0.00000000
     atom   23 type  1   force =    -0.00000000   -0.00141997    0.00000000
     atom   24 type  1   force =    -0.00000000   -0.00032532    0.00000000
     atom   25 type  1   force =     0.00120916    0.00072270    0.00000000
     atom   26 type  1   force =     0.00089405    0.00210628    0.00000000
     atom   27 type  1   force =    -0.00000000   -0.00009930    0.00000000
     atom   28 type  1   force =     0.00225826   -0.00027228    0.00000000
     atom   29 type  1   force =     0.01278316    0.00734846    0.00000000
     atom   30 type  1   force =    -0.00028647    0.00012182    0.00000000
     atom   31 type  1   force =    -0.00010635    0.00006301    0.00000000

     Total force =     0.027074     Total SCF correction =     0.000593


     Computing stress (Cartesian axis) and pressure


     negative rho (up, down):  8.645E-05 0.000E+00
          total   stress  (Ry/bohr**3)                   (kbar)     P=   -0.62
  -0.00000635   0.00000000  -0.00000000         -0.93      0.00     -0.00
   0.00000000  -0.00000632  -0.00000000          0.00     -0.93     -0.00
   0.00000000   0.00000000   0.00000003          0.00      0.00      0.00


     number of scf cycles    =   4
     number of bfgs steps    =   3

     enthalpy old            =    -140.9384838400 Ry
     enthalpy new            =    -140.9403535200 Ry

     CASE: enthalpy_new < enthalpy_old

     new trust radius        =       0.0510723726 bohr
     new conv_thr            =       0.0000010000 Ry

     new unit-cell volume =  37039.78579 a.u.^3 (  5488.72990 Ang^3 )
     density =      0.28119 g/cm^3

CELL_PARAMETERS (alat= 33.68096681)
   0.998775300   0.000000000   0.000000000
  -0.499387650   0.864973315   0.000000000
   0.000000000   0.000000000   1.122132950

ATOMIC_POSITIONS (angstrom)
Al       0.008602664   2.574414580   0.000000000
Al       2.220393333   1.266331583   0.000000000
Al      -2.228205346   6.416425979   0.000000000
Al      -0.018471073   5.144072733   0.000000000
Al      -2.281466031   9.025424178   0.000000000
Al      -6.683329671  14.132864045   0.000000000
Al      -4.450300218  12.782226278   0.000000000
Al       4.450363167   2.575901177   0.000000000
Al       6.680366817   1.266349757   0.000000000
Al       2.230771413   6.420424892   0.000000000
Al       4.450395812   5.138957955   0.000000000
Al       0.004869176  10.284113388   0.000000000
Al       2.211511579   9.006511386   0.000000000
Al      -2.217304581  14.132882219   0.000000000
Al      -0.003119865  12.845443749   0.000000000
Al       8.892123671   2.574450928   0.000000000
Al      11.123033453   1.286644871   0.000000000
Al       6.669986396   6.420443065   0.000000000
Al       8.919262698   5.144109081   0.000000000
Al       4.450394642  10.268091745   0.000000000
Al       6.689311520   9.006529560   0.000000000
Al       2.228987518  14.133981898   0.000000000
Al       4.450427287  12.843830245   0.000000000
Al      13.351090672   2.565104834   0.000000000
Al      15.579181707   1.286663045   0.000000000
Al      11.128963155   6.416480501   0.000000000
Al      13.351123317   5.142779012   0.000000000
Al       8.895920108  10.284149735   0.000000000
Al      11.182289130   9.025478700   0.000000000
Al       6.671833240  14.134000072   0.000000000
Al       8.903974438  12.845480097   0.000000000



     Writing output data file 5al_planar_2x2_vcr.save/
     NEW-OLD atomic charge density approx. for the potential

     negative rho (up, down):  8.651E-05 0.000E+00
     extrapolated charge   92.90421, renormalised to   93.00000

     total cpu time spent up to now is     1341.2 secs

     Self-consistent Calculation

     iteration #  1     ecut=    80.00 Ry     beta= 0.40
     Davidson diagonalization with overlap
     ethr =  1.00E-06,  avg # of iterations =  6.0

     negative rho (up, down):  8.693E-05 0.000E+00

     total cpu time spent up to now is     1378.8 secs

     total energy              =    -140.94271027 Ry
     Harris-Foulkes estimate   =    -141.41759825 Ry
     estimated scf accuracy    <       0.00043321 Ry

     iteration #  2     ecut=    80.00 Ry     beta= 0.40
     Davidson diagonalization with overlap
     c_bands:  1 eigenvalues not converged
     ethr =  4.66E-07,  avg # of iterations = 20.0

     negative rho (up, down):  8.685E-05 0.000E+00

     total cpu time spent up to now is     1416.8 secs

     total energy              =    -140.94259335 Ry
     Harris-Foulkes estimate   =    -140.94330520 Ry
     estimated scf accuracy    <       0.00568597 Ry

     iteration #  3     ecut=    80.00 Ry     beta= 0.40
     Davidson diagonalization with overlap
     ethr =  4.66E-07,  avg # of iterations =  4.0

     negative rho (up, down):  8.677E-05 0.000E+00

     total cpu time spent up to now is     1440.9 secs

     total energy              =    -140.94291660 Ry
     Harris-Foulkes estimate   =    -140.94294530 Ry
     estimated scf accuracy    <       0.00012736 Ry

     iteration #  4     ecut=    80.00 Ry     beta= 0.40
     Davidson diagonalization with overlap
     ethr =  1.37E-07,  avg # of iterations =  3.0

     negative rho (up, down):  8.664E-05 0.000E+00

     total cpu time spent up to now is     1461.9 secs

     total energy              =    -140.94291581 Ry
     Harris-Foulkes estimate   =    -140.94293047 Ry
     estimated scf accuracy    <       0.00006852 Ry

     iteration #  5     ecut=    80.00 Ry     beta= 0.40
     Davidson diagonalization with overlap
     ethr =  7.37E-08,  avg # of iterations =  4.0

     negative rho (up, down):  8.649E-05 0.000E+00

     total cpu time spent up to now is     1485.3 secs

     total energy              =    -140.94290960 Ry
     Harris-Foulkes estimate   =    -140.94294008 Ry
     estimated scf accuracy    <       0.00021172 Ry

     iteration #  6     ecut=    80.00 Ry     beta= 0.40
     Davidson diagonalization with overlap
     ethr =  7.37E-08,  avg # of iterations =  4.0

     negative rho (up, down):  8.632E-05 0.000E+00

     total cpu time spent up to now is     1506.4 secs

     total energy              =    -140.94292434 Ry
     Harris-Foulkes estimate   =    -140.94292597 Ry
     estimated scf accuracy    <       0.00001151 Ry

     iteration #  7     ecut=    80.00 Ry     beta= 0.40
     Davidson diagonalization with overlap
     ethr =  1.24E-08,  avg # of iterations =  5.0

     negative rho (up, down):  8.632E-05 0.000E+00

     total cpu time spent up to now is     1531.0 secs

     total energy              =    -140.94292589 Ry
     Harris-Foulkes estimate   =    -140.94292714 Ry
     estimated scf accuracy    <       0.00000700 Ry

     iteration #  8     ecut=    80.00 Ry     beta= 0.40
     Davidson diagonalization with overlap
     ethr =  7.52E-09,  avg # of iterations =  3.0

     negative rho (up, down):  8.632E-05 0.000E+00

     total cpu time spent up to now is     1552.5 secs

     total energy              =    -140.94292640 Ry
     Harris-Foulkes estimate   =    -140.94292702 Ry
     estimated scf accuracy    <       0.00000433 Ry

     iteration #  9     ecut=    80.00 Ry     beta= 0.40
     Davidson diagonalization with overlap
     ethr =  4.65E-09,  avg # of iterations =  2.0

     negative rho (up, down):  8.633E-05 0.000E+00

     total cpu time spent up to now is     1572.9 secs

     End of self-consistent calculation

          k = 0.0000 0.0000 0.0000 (448403 PWs)   bands (ev):

    -9.9575  -9.4516  -9.4453  -9.4434  -9.4178  -9.4169  -9.1349  -8.4041
    -8.4023  -8.3990  -8.3683  -8.3662  -8.3142  -8.2362  -8.2351  -7.5799
    -6.9336  -6.9334  -6.8244  -6.4789  -6.4778  -6.4594  -6.3826  -6.3815
    -5.5052  -4.8255  -4.8188  -4.8182  -4.7385  -4.7382  -4.4692  -4.4621
    -4.4459  -4.4456  -4.1440  -4.1437  -3.9797  -3.4717  -3.4700  -3.4682
    -3.4561  -3.4550  -3.3879  -3.2893  -3.2660  -3.2651  -3.2158  -2.9610
    -2.9520  -2.9515  -2.9364  -2.5018  -2.5015  -2.4451  -2.4438  -2.4284

     the Fermi energy is    -3.0900 ev

!    total energy              =    -140.94292639 Ry
     Harris-Foulkes estimate   =    -140.94292681 Ry
     estimated scf accuracy    <       0.00000067 Ry

     The total energy is the sum of the following terms:

     one-electron contribution =    -502.78783965 Ry
     hartree contribution      =     260.13536036 Ry
     xc contribution           =     -61.32367700 Ry
     ewald contribution        =     163.11147709 Ry
     smearing contrib. (-TS)   =      -0.07824720 Ry

     convergence has been achieved in   9 iterations

     negative rho (up, down):  8.633E-05 0.000E+00

     Forces acting on atoms (cartesian axes, Ry/au):

     atom    1 type  1   force =     0.00201923    0.00109525    0.00000000
     atom    2 type  1   force =     0.00056861   -0.00049732    0.00000000
     atom    3 type  1   force =    -0.00088177    0.00532041    0.00000000
     atom    4 type  1   force =     0.00000325    0.00088223    0.00000000
     atom    5 type  1   force =    -0.01267704    0.00741454    0.00000000
     atom    6 type  1   force =     0.00396269   -0.00343411    0.00000000
     atom    7 type  1   force =     0.00000000   -0.01486012    0.00000000
     atom    8 type  1   force =     0.00000000   -0.00105305    0.00000000
     atom    9 type  1   force =    -0.00056861   -0.00049732    0.00000000
     atom   10 type  1   force =    -0.00106630    0.00054601    0.00000000
     atom   11 type  1   force =     0.00000000   -0.00001412    0.00000000
     atom   12 type  1   force =    -0.00512636   -0.00185994    0.00000000
     atom   13 type  1   force =    -0.00080686   -0.00039250    0.00000000
     atom   14 type  1   force =    -0.00396269   -0.00343411    0.00000000
     atom   15 type  1   force =     0.00083744    0.00054802    0.00000000
     atom   16 type  1   force =    -0.00201923    0.00109525    0.00000000
     atom   17 type  1   force =    -0.00158375    0.00064899    0.00000000
     atom   18 type  1   force =     0.00106630    0.00054601    0.00000000
     atom   19 type  1   force =    -0.00000325    0.00088223    0.00000000
     atom   20 type  1   force =     0.00000000   -0.00236873    0.00000000
     atom   21 type  1   force =     0.00080686   -0.00039250    0.00000000
     atom   22 type  1   force =    -0.00023898    0.00010400    0.00000000
     atom   23 type  1   force =     0.00000000   -0.00162835    0.00000000
     atom   24 type  1   force =    -0.00000000    0.00016406    0.00000000
     atom   25 type  1   force =     0.00158375    0.00064899    0.00000000
     atom   26 type  1   force =     0.00088177    0.00532041    0.00000000
     atom   27 type  1   force =     0.00000000   -0.00099087    0.00000000
     atom   28 type  1   force =     0.00512636   -0.00185994    0.00000000
     atom   29 type  1   force =     0.01267704    0.00741454    0.00000000
     atom   30 type  1   force =     0.00023898    0.00010400    0.00000000
     atom   31 type  1   force =    -0.00083744    0.00054802    0.00000000

     Total force =     0.029342     Total SCF correction =     0.000490


     Computing stress (Cartesian axis) and pressure


     negative rho (up, down):  8.633E-05 0.000E+00
          total   stress  (Ry/bohr**3)                   (kbar)     P=   -0.65
  -0.00000667   0.00000000   0.00000000         -0.98      0.00      0.00
   0.00000000  -0.00000671   0.00000000          0.00     -0.99      0.00
  -0.00000000   0.00000000   0.00000006         -0.00      0.00      0.01


     number of scf cycles    =   5
     number of bfgs steps    =   4

     enthalpy old            =    -140.9403535200 Ry
     enthalpy new            =    -140.9429263937 Ry

     CASE: enthalpy_new < enthalpy_old

     new trust radius        =       0.0765692551 bohr
     new conv_thr            =       0.0000010000 Ry

     new unit-cell volume =  36982.13845 a.u.^3 (  5480.18744 Ang^3 )
     density =      0.28163 g/cm^3

CELL_PARAMETERS (alat= 33.68096681)
   0.997995998   0.000000000   0.000000000
  -0.498997999   0.864301480   0.000000000
   0.000000000   0.000000000   1.122132950

ATOMIC_POSITIONS (angstrom)
Al       0.014008669   2.575489995   0.000000000
Al       2.216434406   1.255718615   0.000000000
Al      -2.228412571   6.410423736   0.000000000
Al      -0.027881370   5.143123998   0.000000000
Al      -2.314639735   9.038567548   0.000000000
Al      -6.680129899  14.120644457   0.000000000
Al      -4.446827840  12.731810942   0.000000000
Al       4.446890740   2.576701815   0.000000000
Al       6.677380863   1.255736775   0.000000000
Al       2.231354243   6.414039206   0.000000000
Al       4.446923359   5.134980939   0.000000000
Al       0.004780321  10.278369041   0.000000000
Al       2.202412015   9.006179384   0.000000000
Al      -2.213559570  14.120662617   0.000000000
Al      -0.004325161  12.834820328   0.000000000
Al       8.879772810   2.575526314   0.000000000
Al      11.112117996   1.286863233   0.000000000
Al       6.662458686   6.414057366   0.000000000
Al       8.921728088   5.143160317   0.000000000
Al       4.446922189  10.253925605   0.000000000
Al       6.691466153   9.006197544   0.000000000
Al       2.229042546  14.124091157   0.000000000
Al       4.446954809  12.831345656   0.000000000
Al      13.340673388   2.560929290   0.000000000
Al      15.569262570   1.286881393   0.000000000
Al      11.122225500   6.410478215   0.000000000
Al      13.340706008   5.140235182   0.000000000
Al       8.889064058  10.278405361   0.000000000
Al      11.208517903   9.038622027   0.000000000
Al       6.664833282  14.124109317   0.000000000
Al       8.898234779  12.834856648   0.000000000



     Writing output data file 5al_planar_2x2_vcr.save/
     NEW-OLD atomic charge density approx. for the potential

     negative rho (up, down):  8.642E-05 0.000E+00
     extrapolated charge   92.85515, renormalised to   93.00000

     total cpu time spent up to now is     1645.5 secs

     Self-consistent Calculation

     iteration #  1     ecut=    80.00 Ry     beta= 0.40
     Davidson diagonalization with overlap
     ethr =  1.00E-06,  avg # of iterations =  8.0

     negative rho (up, down):  8.705E-05 0.000E+00

     total cpu time spent up to now is     1685.1 secs

     total energy              =    -140.94619361 Ry
     Harris-Foulkes estimate   =    -141.66502114 Ry
     estimated scf accuracy    <       0.00070232 Ry

     iteration #  2     ecut=    80.00 Ry     beta= 0.40
     Davidson diagonalization with overlap
     ethr =  7.55E-07,  avg # of iterations =  6.0

     negative rho (up, down):  8.687E-05 0.000E+00

     total cpu time spent up to now is     1714.6 secs

     total energy              =    -140.94628083 Ry
     Harris-Foulkes estimate   =    -140.94704361 Ry
     estimated scf accuracy    <       0.00532296 Ry

     iteration #  3     ecut=    80.00 Ry     beta= 0.40
     Davidson diagonalization with overlap
     ethr =  7.55E-07,  avg # of iterations =  5.0

     negative rho (up, down):  8.675E-05 0.000E+00

     total cpu time spent up to now is     1739.1 secs

     total energy              =    -140.94662357 Ry
     Harris-Foulkes estimate   =    -140.94669181 Ry
     estimated scf accuracy    <       0.00032454 Ry

     iteration #  4     ecut=    80.00 Ry     beta= 0.40
     Davidson diagonalization with overlap
     ethr =  3.49E-07,  avg # of iterations =  1.0

     negative rho (up, down):  8.665E-05 0.000E+00

     total cpu time spent up to now is     1760.1 secs

     total energy              =    -140.94662741 Ry
     Harris-Foulkes estimate   =    -140.94665702 Ry
     estimated scf accuracy    <       0.00013280 Ry

     iteration #  5     ecut=    80.00 Ry     beta= 0.40
     Davidson diagonalization with overlap
     ethr =  1.43E-07,  avg # of iterations =  4.0

     negative rho (up, down):  8.644E-05 0.000E+00

     total cpu time spent up to now is     1783.1 secs

     total energy              =    -140.94661857 Ry
     Harris-Foulkes estimate   =    -140.94666964 Ry
     estimated scf accuracy    <       0.00032655 Ry

     iteration #  6     ecut=    80.00 Ry     beta= 0.40
     Davidson diagonalization with overlap
     ethr =  1.43E-07,  avg # of iterations =  4.0

     negative rho (up, down):  8.631E-05 0.000E+00

     total cpu time spent up to now is     1804.3 secs

     total energy              =    -140.94664108 Ry
     Harris-Foulkes estimate   =    -140.94664978 Ry
     estimated scf accuracy    <       0.00004791 Ry

     iteration #  7     ecut=    80.00 Ry     beta= 0.40
     Davidson diagonalization with overlap
     ethr =  5.15E-08,  avg # of iterations =  4.0

     negative rho (up, down):  8.628E-05 0.000E+00

     total cpu time spent up to now is     1825.9 secs

     total energy              =    -140.94664452 Ry
     Harris-Foulkes estimate   =    -140.94665077 Ry
     estimated scf accuracy    <       0.00004582 Ry

     iteration #  8     ecut=    80.00 Ry     beta= 0.40
     Davidson diagonalization with overlap
     ethr =  4.93E-08,  avg # of iterations =  1.0

     negative rho (up, down):  8.620E-05 0.000E+00

     total cpu time spent up to now is     1845.6 secs

     total energy              =    -140.94664723 Ry
     Harris-Foulkes estimate   =    -140.94664798 Ry
     estimated scf accuracy    <       0.00000440 Ry

     iteration #  9     ecut=    80.00 Ry     beta= 0.40
     Davidson diagonalization with overlap
     ethr =  4.73E-09,  avg # of iterations =  5.0

     negative rho (up, down):  8.614E-05 0.000E+00

     total cpu time spent up to now is     1871.5 secs

     total energy              =    -140.94664817 Ry
     Harris-Foulkes estimate   =    -140.94664861 Ry
     estimated scf accuracy    <       0.00000394 Ry

     iteration # 10     ecut=    80.00 Ry     beta= 0.40
     Davidson diagonalization with overlap
     ethr =  4.23E-09,  avg # of iterations =  3.0

     negative rho (up, down):  8.611E-05 0.000E+00

     total cpu time spent up to now is     1892.2 secs

     total energy              =    -140.94664815 Ry
     Harris-Foulkes estimate   =    -140.94664861 Ry
     estimated scf accuracy    <       0.00000428 Ry

     iteration # 11     ecut=    80.00 Ry     beta= 0.40
     Davidson diagonalization with overlap
     ethr =  4.23E-09,  avg # of iterations =  1.0

     negative rho (up, down):  8.610E-05 0.000E+00

     total cpu time spent up to now is     1912.0 secs

     total energy              =    -140.94664815 Ry
     Harris-Foulkes estimate   =    -140.94664838 Ry
     estimated scf accuracy    <       0.00000132 Ry

     iteration # 12     ecut=    80.00 Ry     beta= 0.40
     Davidson diagonalization with overlap
     ethr =  1.42E-09,  avg # of iterations =  4.0

     negative rho (up, down):  8.607E-05 0.000E+00

     total cpu time spent up to now is     1932.8 secs

     End of self-consistent calculation

          k = 0.0000 0.0000 0.0000 (448403 PWs)   bands (ev):

    -9.9598  -9.4534  -9.4519  -9.4498  -9.4119  -9.4110  -9.1302  -8.4068
    -8.4030  -8.4011  -8.3608  -8.3584  -8.3186  -8.2201  -8.2191  -7.5782
    -6.9343  -6.9340  -6.8254  -6.4777  -6.4765  -6.4447  -6.3864  -6.3850
    -5.5296  -4.8180  -4.8060  -4.8055  -4.7361  -4.7359  -4.4639  -4.4574
    -4.4466  -4.4463  -4.1564  -4.1561  -3.9804  -3.4734  -3.4716  -3.4711
    -3.4508  -3.4499  -3.3783  -3.3416  -3.2597  -3.2588  -3.2135  -2.9661
    -2.9432  -2.9425  -2.9168  -2.4912  -2.4909  -2.4502  -2.4415  -2.4181

     the Fermi energy is    -3.0887 ev

!    total energy              =    -140.94664819 Ry
     Harris-Foulkes estimate   =    -140.94664831 Ry
     estimated scf accuracy    <       0.00000017 Ry

     The total energy is the sum of the following terms:

     one-electron contribution =    -503.27431655 Ry
     hartree contribution      =     260.37293167 Ry
     xc contribution           =     -61.31702777 Ry
     ewald contribution        =     163.34769778 Ry
     smearing contrib. (-TS)   =      -0.07593331 Ry

     convergence has been achieved in  12 iterations

     negative rho (up, down):  8.607E-05 0.000E+00

     Forces acting on atoms (cartesian axes, Ry/au):

     atom    1 type  1   force =     0.00188723    0.00104329    0.00000000
     atom    2 type  1   force =     0.00163407    0.00169307    0.00000000
     atom    3 type  1   force =    -0.00115302    0.00946676    0.00000000
     atom    4 type  1   force =     0.00241944    0.00064213    0.00000000
     atom    5 type  1   force =    -0.01296506    0.00760052    0.00000000
     atom    6 type  1   force =     0.00747634   -0.00569894    0.00000000
     atom    7 type  1   force =     0.00000000   -0.01518037    0.00000000
     atom    8 type  1   force =     0.00000000   -0.00262858    0.00000000
     atom    9 type  1   force =    -0.00163407    0.00169307    0.00000000
     atom   10 type  1   force =    -0.00239801    0.00134125    0.00000000
     atom   11 type  1   force =     0.00000000   -0.00001040    0.00000000
     atom   12 type  1   force =    -0.00887189   -0.00370635    0.00000000
     atom   13 type  1   force =     0.00057857   -0.00241824    0.00000000
     atom   14 type  1   force =    -0.00747634   -0.00569894    0.00000000
     atom   15 type  1   force =     0.00158743    0.00094913    0.00000000
     atom   16 type  1   force =    -0.00188723    0.00104329    0.00000000
     atom   17 type  1   force =    -0.00216637    0.00097687    0.00000000
     atom   18 type  1   force =     0.00239801    0.00134125    0.00000000
     atom   19 type  1   force =    -0.00241944    0.00064213    0.00000000
     atom   20 type  1   force =     0.00000000   -0.00222414    0.00000000
     atom   21 type  1   force =    -0.00057857   -0.00241824    0.00000000
     atom   22 type  1   force =    -0.00076318   -0.00018621    0.00000000
     atom   23 type  1   force =     0.00000000   -0.00229624    0.00000000
     atom   24 type  1   force =    -0.00000000    0.00077622    0.00000000
     atom   25 type  1   force =     0.00216637    0.00097687    0.00000000
     atom   26 type  1   force =     0.00115302    0.00946676    0.00000000
     atom   27 type  1   force =     0.00000000   -0.00184307    0.00000000
     atom   28 type  1   force =     0.00887189   -0.00370635    0.00000000
     atom   29 type  1   force =     0.01296506    0.00760052    0.00000000
     atom   30 type  1   force =     0.00076318   -0.00018621    0.00000000
     atom   31 type  1   force =    -0.00158743    0.00094913    0.00000000

     Total force =     0.036422     Total SCF correction =     0.000329


     Computing stress (Cartesian axis) and pressure


     negative rho (up, down):  8.607E-05 0.000E+00
          total   stress  (Ry/bohr**3)                   (kbar)     P=   -0.70
  -0.00000715   0.00000000  -0.00000000         -1.05      0.00     -0.00
   0.00000000  -0.00000721   0.00000000          0.00     -1.06      0.00
   0.00000000   0.00000000   0.00000001          0.00      0.00      0.00


     number of scf cycles    =   6
     number of bfgs steps    =   5

     enthalpy old            =    -140.9429263937 Ry
     enthalpy new            =    -140.9466481879 Ry

     CASE: enthalpy_new < enthalpy_old

     new trust radius        =       0.1147646744 bohr
     new conv_thr            =       0.0000010000 Ry

     new unit-cell volume =  36895.45527 a.u.^3 (  5467.34232 Ang^3 )
     density =      0.28229 g/cm^3

CELL_PARAMETERS (alat= 33.68096681)
   0.996823059   0.000000000   0.000000000
  -0.498411530   0.863290247   0.000000000
   0.000000000   0.000000000   1.122132950

ATOMIC_POSITIONS (angstrom)
Al       0.021991676   2.577044694   0.000000000
Al       2.210864131   1.240582983   0.000000000
Al      -2.228827050   6.402765830   0.000000000
Al      -0.041159476   5.141554624   0.000000000
Al      -2.364324191   9.058200484   0.000000000
Al      -6.674107091  14.101498773   0.000000000
Al      -4.441601509  12.656254915   0.000000000
Al       4.441664335   2.577341732   0.000000000
Al       6.672498288   1.240601121   0.000000000
Al       2.231784995   6.404710419   0.000000000
Al       4.441696916   5.129000726   0.000000000
Al       0.003406420  10.269114194   0.000000000
Al       2.189268167   9.004941890   0.000000000
Al      -2.209129676  14.101516911   0.000000000
Al      -0.005929501  12.818922959   0.000000000
Al       8.861336993   2.577080971   0.000000000
Al      11.095521227   1.287328818   0.000000000
Al       6.651575087   6.404728558   0.000000000
Al       8.924553307   5.141590901   0.000000000
Al       4.441695747  10.232786320   0.000000000
Al       6.694157077   9.004960029   0.000000000
Al       2.228966631  14.109078221   0.000000000
Al       4.441728329  12.812331471   0.000000000
Al      13.324994172   2.554844651   0.000000000
Al      15.554500867   1.287346957   0.000000000
Al      11.112187132   6.402820246   0.000000000
Al      13.325026753   5.136181262   0.000000000
Al       8.879985074  10.269150471   0.000000000
Al      11.247749435   9.058254900   0.000000000
Al       6.654456276  14.109096360   0.000000000
Al       8.889386159  12.818959236   0.000000000



     Writing output data file 5al_planar_2x2_vcr.save/
     NEW-OLD atomic charge density approx. for the potential

     negative rho (up, down):  8.624E-05 0.000E+00
     extrapolated charge   92.78168, renormalised to   93.00000

     total cpu time spent up to now is     2003.0 secs

     Self-consistent Calculation

     iteration #  1     ecut=    80.00 Ry     beta= 0.40
     Davidson diagonalization with overlap
     ethr =  1.00E-06,  avg # of iterations = 13.0

     negative rho (up, down):  8.723E-05 0.000E+00

     total cpu time spent up to now is     2048.2 secs

     total energy              =    -140.95064027 Ry
     Harris-Foulkes estimate   =    -142.03634845 Ry
     estimated scf accuracy    <       0.00212359 Ry

     iteration #  2     ecut=    80.00 Ry     beta= 0.40
     Davidson diagonalization with overlap
     ethr =  2.28E-06,  avg # of iterations =  7.0

     negative rho (up, down):  8.698E-05 0.000E+00

     total cpu time spent up to now is     2081.1 secs

     total energy              =    -140.95032169 Ry
     Harris-Foulkes estimate   =    -140.95415094 Ry
     estimated scf accuracy    <       0.02984369 Ry

     iteration #  3     ecut=    80.00 Ry     beta= 0.40
     Davidson diagonalization with overlap
     ethr =  2.28E-06,  avg # of iterations =  5.0

     negative rho (up, down):  8.675E-05 0.000E+00

     total cpu time spent up to now is     2107.5 secs

     total energy              =    -140.95202042 Ry
     Harris-Foulkes estimate   =    -140.95214740 Ry
     estimated scf accuracy    <       0.00057472 Ry

     iteration #  4     ecut=    80.00 Ry     beta= 0.40
     Davidson diagonalization with overlap
     ethr =  6.18E-07,  avg # of iterations =  4.0

     negative rho (up, down):  8.658E-05 0.000E+00

     total cpu time spent up to now is     2129.8 secs

     total energy              =    -140.95201294 Ry
     Harris-Foulkes estimate   =    -140.95209352 Ry
     estimated scf accuracy    <       0.00044090 Ry

     iteration #  5     ecut=    80.00 Ry     beta= 0.40
     Davidson diagonalization with overlap
     ethr =  4.74E-07,  avg # of iterations =  1.0

     negative rho (up, down):  8.619E-05 0.000E+00

     total cpu time spent up to now is     2149.0 secs

     total energy              =    -140.95201127 Ry
     Harris-Foulkes estimate   =    -140.95209192 Ry
     estimated scf accuracy    <       0.00049429 Ry

     iteration #  6     ecut=    80.00 Ry     beta= 0.40
     Davidson diagonalization with overlap
     ethr =  4.74E-07,  avg # of iterations =  1.0

     negative rho (up, down):  8.586E-05 0.000E+00

     total cpu time spent up to now is     2170.2 secs

     total energy              =    -140.95203599 Ry
     Harris-Foulkes estimate   =    -140.95205651 Ry
     estimated scf accuracy    <       0.00008157 Ry

     iteration #  7     ecut=    80.00 Ry     beta= 0.40
     Davidson diagonalization with overlap
     ethr =  8.77E-08,  avg # of iterations =  5.0

     negative rho (up, down):  8.578E-05 0.000E+00

     total cpu time spent up to now is     2193.9 secs

     total energy              =    -140.95203987 Ry
     Harris-Foulkes estimate   =    -140.95207003 Ry
     estimated scf accuracy    <       0.00022648 Ry

     iteration #  8     ecut=    80.00 Ry     beta= 0.40
     Davidson diagonalization with overlap
     ethr =  8.77E-08,  avg # of iterations =  3.0

     negative rho (up, down):  8.576E-05 0.000E+00

     total cpu time spent up to now is     2215.8 secs

     total energy              =    -140.95205418 Ry
     Harris-Foulkes estimate   =    -140.95205571 Ry
     estimated scf accuracy    <       0.00000791 Ry

     iteration #  9     ecut=    80.00 Ry     beta= 0.40
     Davidson diagonalization with overlap
     ethr =  8.50E-09,  avg # of iterations =  4.0

     negative rho (up, down):  8.575E-05 0.000E+00

     total cpu time spent up to now is     2240.3 secs

     total energy              =    -140.95205407 Ry
     Harris-Foulkes estimate   =    -140.95205514 Ry
     estimated scf accuracy    <       0.00000450 Ry

     iteration # 10     ecut=    80.00 Ry     beta= 0.40
     Davidson diagonalization with overlap
     ethr =  4.84E-09,  avg # of iterations =  3.0

     negative rho (up, down):  8.574E-05 0.000E+00

     total cpu time spent up to now is     2262.1 secs

     total energy              =    -140.95205384 Ry
     Harris-Foulkes estimate   =    -140.95205516 Ry
     estimated scf accuracy    <       0.00000865 Ry

     iteration # 11     ecut=    80.00 Ry     beta= 0.40
     Davidson diagonalization with overlap
     ethr =  4.84E-09,  avg # of iterations =  1.0

     negative rho (up, down):  8.571E-05 0.000E+00

     total cpu time spent up to now is     2282.2 secs

     End of self-consistent calculation

          k = 0.0000 0.0000 0.0000 (448403 PWs)   bands (ev):

    -9.9637  -9.4613  -9.4593  -9.4558  -9.4042  -9.4038  -9.1249  -8.4177
    -8.4021  -8.4004  -8.3525  -8.3503  -8.3252  -8.1928  -8.1921  -7.5791
    -6.9358  -6.9355  -6.8282  -6.4755  -6.4743  -6.4242  -6.3899  -6.3886
    -5.5670  -4.8075  -4.7906  -4.7904  -4.7291  -4.7290  -4.4563  -4.4505
    -4.4477  -4.4475  -4.1751  -4.1748  -3.9817  -3.4780  -3.4758  -3.4716
    -3.4432  -3.4427  -3.4225  -3.3628  -3.2510  -3.2501  -3.2116  -2.9744
    -2.9298  -2.9291  -2.8846  -2.4765  -2.4762  -2.4570  -2.4387  -2.4054

     the Fermi energy is    -3.0862 ev

!    total energy              =    -140.95205417 Ry
     Harris-Foulkes estimate   =    -140.95205445 Ry
     estimated scf accuracy    <       0.00000050 Ry

     The total energy is the sum of the following terms:

     one-electron contribution =    -504.03147058 Ry
     hartree contribution      =     260.74468366 Ry
     xc contribution           =     -61.30925934 Ry
     ewald contribution        =     163.71583073 Ry
     smearing contrib. (-TS)   =      -0.07183864 Ry

     convergence has been achieved in  11 iterations

     negative rho (up, down):  8.571E-05 0.000E+00

     Forces acting on atoms (cartesian axes, Ry/au):

     atom    1 type  1   force =     0.00168910    0.00097312    0.00000000
     atom    2 type  1   force =     0.00310113    0.00480633    0.00000000
     atom    3 type  1   force =    -0.00173410    0.01515982    0.00000000
     atom    4 type  1   force =     0.00584488    0.00026453    0.00000000
     atom    5 type  1   force =    -0.01339880    0.00785759    0.00000000
     atom    6 type  1   force =     0.01219714   -0.00901552    0.00000000
     atom    7 type  1   force =     0.00000000   -0.01562124    0.00000000
     atom    8 type  1   force =     0.00000000   -0.00478352    0.00000000
     atom    9 type  1   force =    -0.00310113    0.00480633    0.00000000
     atom   10 type  1   force =    -0.00421260    0.00241856    0.00000000
     atom   11 type  1   force =     0.00000000   -0.00000534    0.00000000
     atom   12 type  1   force =    -0.01411473   -0.00605191    0.00000000
     atom   13 type  1   force =     0.00261631   -0.00525495    0.00000000
     atom   14 type  1   force =    -0.01219714   -0.00901552    0.00000000
     atom   15 type  1   force =     0.00259048    0.00150013    0.00000000
     atom   16 type  1   force =    -0.00168910    0.00097312    0.00000000
     atom   17 type  1   force =    -0.00294606    0.00140500    0.00000000
     atom   18 type  1   force =     0.00421260    0.00241856    0.00000000
     atom   19 type  1   force =    -0.00584488    0.00026453    0.00000000
     atom   20 type  1   force =     0.00000000   -0.00203505    0.00000000
     atom   21 type  1   force =    -0.00261631   -0.00525495    0.00000000
     atom   22 type  1   force =    -0.00147368   -0.00056402    0.00000000
     atom   23 type  1   force =     0.00000000   -0.00317815    0.00000000
     atom   24 type  1   force =    -0.00000000    0.00160535    0.00000000
     atom   25 type  1   force =     0.00294606    0.00140500    0.00000000
     atom   26 type  1   force =     0.00173410    0.01515982    0.00000000
     atom   27 type  1   force =     0.00000000   -0.00297937    0.00000000
     atom   28 type  1   force =     0.01411473   -0.00605191    0.00000000
     atom   29 type  1   force =     0.01339880    0.00785759    0.00000000
     atom   30 type  1   force =     0.00147368   -0.00056402    0.00000000
     atom   31 type  1   force =    -0.00259048    0.00150013    0.00000000

     Total force =     0.049743     Total SCF correction =     0.000495


     Computing stress (Cartesian axis) and pressure


     negative rho (up, down):  8.571E-05 0.000E+00
          total   stress  (Ry/bohr**3)                   (kbar)     P=   -0.77
  -0.00000783   0.00000000   0.00000000         -1.15      0.00      0.00
   0.00000000  -0.00000791   0.00000000          0.00     -1.16      0.00
[...]
Al       3.798996436   6.310419419   0.000000000
Al       5.221671355   8.337131060   0.000000000
Al       2.444178213  12.920042276   0.000000000
Al       3.799024232  10.616958313   0.000000000
Al      11.396909622   1.813894501   0.000000000
Al      14.216345253   1.718744085   0.000000000
Al      10.051381629   6.553430643   0.000000000
Al      11.396937513   4.351485966   0.000000000
Al       7.825961215   8.088947611   0.000000000
Al      10.171871486   9.189403028   0.000000000
Al       5.153841495  12.920058052   0.000000000
Al       6.380088985  10.589311255   0.000000000
End final coordinates



     Writing output data file 5al_planar_2x2_vcr.save/

     A final scf calculation at the relaxed structure.
     The G-vectors are recalculated for the final unit cell
     Results may differ from those at the preceding step.
 
     Parallelization info
     --------------------
     sticks:   dense  smooth     PW     G-vecs:    dense   smooth      PW
     Min        2304    2304    576               330600   330600   41308
     Max        2306    2306    577               330601   330601   41311
     Sum       18439   18439   4615              2644805  2644805  330477
 


     bravais-lattice index     =            4
     lattice parameter (alat)  =      33.6810  a.u.
     unit-cell volume          =   27359.9831 (a.u.)^3
     number of atoms/cell      =           31
     number of atomic types    =            1
     number of electrons       =        93.00
     number of Kohn-Sham states=           56
     kinetic-energy cutoff     =      80.0000  Ry
     charge density cutoff     =     320.0000  Ry
     convergence threshold     =      1.0E-08
     mixing beta               =       0.4000
     number of iterations used =            8  plain     mixing
     Exchange-correlation      = PBE ( 1  4  3  4 0 0)

     celldm(1)=  33.680967  celldm(2)=   0.000000  celldm(3)=   1.122133
     celldm(4)=   0.000000  celldm(5)=   0.000000  celldm(6)=   0.000000

     crystal axes: (cart. coord. in units of alat)
               a(1) = (   0.852586   0.000000   0.000000 )  
               a(2) = (  -0.426293   0.748479   0.000000 )  
               a(3) = (   0.000000   0.000000   1.122133 )  

     reciprocal axes: (cart. coord. in units 2 pi/alat)
               b(1) = (  1.172902  0.668021  0.000000 )  
               b(2) = ( -0.000000  1.336043  0.000000 )  
               b(3) = (  0.000000  0.000000  0.891160 )  


     PseudoPot. # 1 for Al read from file:
     ./Al.upf
     MD5 check sum: 4974d48a734c9d7d1eb6780a1419d19d
     Pseudo is Norm-conserving + core correction, Zval =  3.0
     Generated using ONCVPSP code by D. R. Hamann
     Using radial grid of 1876 points,  6 beta functions with: 
                l(1) =   0
                l(2) =   0
                l(3) =   1
                l(4) =   1
                l(5) =   2
                l(6) =   2

     atomic species   valence    mass     pseudopotential
        Al             3.00    29.98200     Al( 1.00)

      4 Sym. Ops. (no inversion) found ( 2 have fractional translation)



   Cartesian axes

     site n.     atom                  positions (alat units)
         1           Al  tau(   1) = (   0.0755270   0.1694695   0.0000000  )
         2           Al  tau(   2) = (   0.0757645   0.0229687   0.0000000  )
         3           Al  tau(   3) = (  -0.1376529   0.3676884   0.0000000  )
         4           Al  tau(   4) = (  -0.0594523   0.2430533   0.0000000  )
         5           Al  tau(   5) = (  -0.1444101   0.5155839   0.0000000  )
         6           Al  tau(   6) = (  -0.3602149   0.6313274   0.0000000  )
         7           Al  tau(   7) = (  -0.2131444   0.6686636   0.0000000  )
         8           Al  tau(   8) = (   0.2131474   0.0739912   0.0000000  )
         9           Al  tau(   9) = (   0.3505320   0.0229696   0.0000000  )
        10           Al  tau(  10) = (   0.0692385   0.3231555   0.0000000  )
        11           Al  tau(  11) = (   0.2131490   0.2178519   0.0000000  )
        12           Al  tau(  12) = (  -0.0127905   0.4538420   0.0000000  )
        13           Al  tau(  13) = (   0.1333291   0.4677676   0.0000000  )
        14           Al  tau(  14) = (  -0.0660756   0.6313283   0.0000000  )
        15           Al  tau(  15) = (   0.0683356   0.5941290   0.0000000  )
        16           Al  tau(  16) = (   0.3507679   0.1694713   0.0000000  )
        17           Al  tau(  17) = (   0.4812549   0.0964321   0.0000000  )
        18           Al  tau(  18) = (   0.3570579   0.3231564   0.0000000  )
        19           Al  tau(  19) = (   0.4857504   0.2430550   0.0000000  )
        20           Al  tau(  20) = (   0.2131490   0.3540565   0.0000000  )
        21           Al  tau(  21) = (   0.2929705   0.4677685   0.0000000  )
        22           Al  tau(  22) = (   0.1371346   0.7249003   0.0000000  )
        23           Al  tau(  23) = (   0.2131505   0.5956819   0.0000000  )
        24           Al  tau(  24) = (   0.6394424   0.1017715   0.0000000  )
        25           Al  tau(  25) = (   0.7976315   0.0964330   0.0000000  )
        26           Al  tau(  26) = (   0.5639493   0.3676910   0.0000000  )
        27           Al  tau(  27) = (   0.6394440   0.2441473   0.0000000  )
        28           Al  tau(  28) = (   0.4390884   0.4538437   0.0000000  )
        29           Al  tau(  29) = (   0.5707096   0.5155866   0.0000000  )
        30           Al  tau(  30) = (   0.2891648   0.7249011   0.0000000  )
        31           Al  tau(  31) = (   0.3579654   0.5941308   0.0000000  )

     number of k points=     1  Methfessel-Paxton smearing, width (Ry)=  0.0500
                       cart. coord. in units 2pi/alat
        k(    1) = (   0.0000000   0.0000000   0.0000000), wk =   2.0000000

     Dense  grid:  2644805 G-vectors     FFT dimensions: ( 180, 180, 216)

     Estimated max dynamical RAM per process >     888.75 MB

     Estimated total dynamical RAM >       6.94 GB

     Initial potential from superposition of free atoms

     starting charge   92.92414, renormalised to   93.00000

     negative rho (up, down):  7.322E-05 0.000E+00
     Starting wfcs are  124 randomized atomic wfcs

     total cpu time spent up to now is    70755.1 secs

     Self-consistent Calculation

     iteration #  1     ecut=    80.00 Ry     beta= 0.40
     Davidson diagonalization with overlap
     c_bands:  1 eigenvalues not converged
     ethr =  1.00E-06,  avg # of iterations = 20.0

     negative rho (up, down):  1.624E-05 0.000E+00

     total cpu time spent up to now is    70822.0 secs

     total energy              =    -141.89443562 Ry
     Harris-Foulkes estimate   =    -142.27103225 Ry
     estimated scf accuracy    <       1.00693336 Ry

     iteration #  2     ecut=    80.00 Ry     beta= 0.40
     Davidson diagonalization with overlap
     ethr =  1.08E-03,  avg # of iterations =  3.0

     negative rho (up, down):  1.541E-05 0.000E+00

     total cpu time spent up to now is    70840.8 secs

     total energy              =    -141.83247379 Ry
     Harris-Foulkes estimate   =    -142.06337707 Ry
     estimated scf accuracy    <       0.61491016 Ry

     iteration #  3     ecut=    80.00 Ry     beta= 0.40
     Davidson diagonalization with overlap
     ethr =  6.61E-04,  avg # of iterations =  5.0

     negative rho (up, down):  1.722E-05 0.000E+00

     total cpu time spent up to now is    70864.3 secs

     total energy              =    -141.88107333 Ry
     Harris-Foulkes estimate   =    -142.06946132 Ry
     estimated scf accuracy    <       0.88551794 Ry

     iteration #  4     ecut=    80.00 Ry     beta= 0.40
     Davidson diagonalization with overlap
     ethr =  6.61E-04,  avg # of iterations =  4.0

     negative rho (up, down):  1.790E-05 0.000E+00

     total cpu time spent up to now is    70884.3 secs

     total energy              =    -141.96600146 Ry
     Harris-Foulkes estimate   =    -141.97309727 Ry
     estimated scf accuracy    <       0.02363013 Ry

     iteration #  5     ecut=    80.00 Ry     beta= 0.40
     Davidson diagonalization with overlap
     ethr =  2.54E-05,  avg # of iterations = 12.0

     negative rho (up, down):  1.844E-05 0.000E+00

     total cpu time spent up to now is    70912.5 secs

     total energy              =    -141.97149675 Ry
     Harris-Foulkes estimate   =    -141.97526237 Ry
     estimated scf accuracy    <       0.01536886 Ry

     iteration #  6     ecut=    80.00 Ry     beta= 0.40
     Davidson diagonalization with overlap
     ethr =  1.65E-05,  avg # of iterations =  5.0

     negative rho (up, down):  1.897E-05 0.000E+00

     total cpu time spent up to now is    70932.4 secs

     total energy              =    -141.97229732 Ry
     Harris-Foulkes estimate   =    -141.97456173 Ry
     estimated scf accuracy    <       0.01002939 Ry

     iteration #  7     ecut=    80.00 Ry     beta= 0.40
     Davidson diagonalization with overlap
     ethr =  1.08E-05,  avg # of iterations =  4.0

     negative rho (up, down):  1.919E-05 0.000E+00

     total cpu time spent up to now is    70951.8 secs

     total energy              =    -141.97333130 Ry
     Harris-Foulkes estimate   =    -141.97355828 Ry
     estimated scf accuracy    <       0.00081976 Ry

     iteration #  8     ecut=    80.00 Ry     beta= 0.40
     Davidson diagonalization with overlap
     ethr =  8.81E-07,  avg # of iterations = 10.0

     negative rho (up, down):  1.927E-05 0.000E+00

     total cpu time spent up to now is    70979.4 secs

     total energy              =    -141.97336160 Ry
     Harris-Foulkes estimate   =    -141.97347304 Ry
     estimated scf accuracy    <       0.00062666 Ry

     iteration #  9     ecut=    80.00 Ry     beta= 0.40
     Davidson diagonalization with overlap
     ethr =  6.74E-07,  avg # of iterations =  3.0

     negative rho (up, down):  1.930E-05 0.000E+00

     total cpu time spent up to now is    70998.6 secs

     total energy              =    -141.97337628 Ry
     Harris-Foulkes estimate   =    -141.97341675 Ry
     estimated scf accuracy    <       0.00018600 Ry

     iteration # 10     ecut=    80.00 Ry     beta= 0.40
     Davidson diagonalization with overlap
     ethr =  2.00E-07,  avg # of iterations =  4.0

     negative rho (up, down):  1.933E-05 0.000E+00

     total cpu time spent up to now is    71020.8 secs

     total energy              =    -141.97339891 Ry
     Harris-Foulkes estimate   =    -141.97340063 Ry
     estimated scf accuracy    <       0.00000776 Ry

     iteration # 11     ecut=    80.00 Ry     beta= 0.40
     Davidson diagonalization with overlap
     ethr =  8.34E-09,  avg # of iterations =  8.0

     negative rho (up, down):  1.935E-05 0.000E+00

     total cpu time spent up to now is    71051.8 secs

     total energy              =    -141.97340194 Ry
     Harris-Foulkes estimate   =    -141.97340364 Ry
     estimated scf accuracy    <       0.00000866 Ry

     iteration # 12     ecut=    80.00 Ry     beta= 0.40
     Davidson diagonalization with overlap
     ethr =  8.34E-09,  avg # of iterations =  6.0

     negative rho (up, down):  1.936E-05 0.000E+00

     total cpu time spent up to now is    71073.3 secs

     total energy              =    -141.97340195 Ry
     Harris-Foulkes estimate   =    -141.97340301 Ry
     estimated scf accuracy    <       0.00000459 Ry

     iteration # 13     ecut=    80.00 Ry     beta= 0.40
     Davidson diagonalization with overlap
     ethr =  4.94E-09,  avg # of iterations =  4.0

     negative rho (up, down):  1.937E-05 0.000E+00

     total cpu time spent up to now is    71094.2 secs

     total energy              =    -141.97340242 Ry
     Harris-Foulkes estimate   =    -141.97340261 Ry
     estimated scf accuracy    <       0.00000123 Ry

     iteration # 14     ecut=    80.00 Ry     beta= 0.40
     Davidson diagonalization with overlap
     ethr =  1.32E-09,  avg # of iterations =  3.0

     negative rho (up, down):  1.938E-05 0.000E+00

     total cpu time spent up to now is    71112.8 secs

     total energy              =    -141.97340236 Ry
     Harris-Foulkes estimate   =    -141.97340248 Ry
     estimated scf accuracy    <       0.00000046 Ry

     iteration # 15     ecut=    80.00 Ry     beta= 0.40
     Davidson diagonalization with overlap
     ethr =  4.90E-10,  avg # of iterations =  5.0

     negative rho (up, down):  1.938E-05 0.000E+00

     total cpu time spent up to now is    71135.8 secs

     total energy              =    -141.97340240 Ry
     Harris-Foulkes estimate   =    -141.97340243 Ry
     estimated scf accuracy    <       0.00000007 Ry

     iteration # 16     ecut=    80.00 Ry     beta= 0.40
     Davidson diagonalization with overlap
     ethr =  7.59E-11,  avg # of iterations =  4.0

     negative rho (up, down):  1.938E-05 0.000E+00

     total cpu time spent up to now is    71157.6 secs

     total energy              =    -141.97340239 Ry
     Harris-Foulkes estimate   =    -141.97340240 Ry
     estimated scf accuracy    <       0.00000001 Ry

     iteration # 17     ecut=    80.00 Ry     beta= 0.40
     Davidson diagonalization with overlap
     ethr =  1.42E-11,  avg # of iterations =  5.0

     negative rho (up, down):  1.938E-05 0.000E+00

     total cpu time spent up to now is    71179.4 secs

     End of self-consistent calculation

          k = 0.0000 0.0000 0.0000 (330477 PWs)   bands (ev):

   -11.4587 -10.8344 -10.6798 -10.5837 -10.5366 -10.4469 -10.3902  -9.1876
    -9.0475  -8.9941  -8.8826  -8.8725  -8.6676  -8.2541  -8.1418  -8.1406
    -8.1144  -7.9021  -7.6537  -6.0615  -6.0008  -5.9550  -5.9510  -5.9029
    -5.8267  -5.6763  -5.5429  -5.4644  -5.4248  -5.2846  -5.2167  -4.7784
    -4.4730  -4.3408  -4.1366  -4.1324  -4.0305  -3.9588  -3.9368  -3.8757
    -3.8235  -3.7908  -3.7411  -3.7335  -2.5375  -2.4429  -2.3973  -2.3462
    -2.2950  -2.1898  -2.1816  -2.0756  -1.9453  -1.7869  -1.7061  -1.6151

     the Fermi energy is    -2.4736 ev

!    total energy              =    -141.97340237 Ry
     Harris-Foulkes estimate   =    -141.97340238 Ry
     estimated scf accuracy    <          7.7E-09 Ry

     The total energy is the sum of the following terms:

     one-electron contribution =    -670.66731255 Ry
     hartree contribution      =     344.06115622 Ry
     xc contribution           =     -63.39923483 Ry
     ewald contribution        =     248.08172684 Ry
     smearing contrib. (-TS)   =      -0.04973805 Ry

     convergence has been achieved in  17 iterations

     negative rho (up, down):  1.938E-05 0.000E+00

     Forces acting on atoms (cartesian axes, Ry/au):

     atom    1 type  1   force =    -0.00000632    0.00000971    0.00000000
     atom    2 type  1   force =     0.00000143   -0.00000890    0.00000000
     atom    3 type  1   force =     0.00000206    0.00000665    0.00000000
     atom    4 type  1   force =    -0.00000090    0.00000588    0.00000000
     atom    5 type  1   force =    -0.00000815   -0.00000270    0.00000000
     atom    6 type  1   force =     0.00000433   -0.00000110    0.00000000
     atom    7 type  1   force =    -0.00000000    0.00000364    0.00000000
     atom    8 type  1   force =     0.00000000   -0.00000571    0.00000000
     atom    9 type  1   force =    -0.00000143   -0.00000890    0.00000000
     atom   10 type  1   force =    -0.00000171   -0.00000163    0.00000000
     atom   11 type  1   force =    -0.00000000    0.00000614    0.00000000
     atom   12 type  1   force =     0.00000977   -0.00000279    0.00000000
     atom   13 type  1   force =     0.00000192   -0.00000676    0.00000000
     atom   14 type  1   force =    -0.00000433   -0.00000110    0.00000000
     atom   15 type  1   force =    -0.00000351    0.00000302    0.00000000
     atom   16 type  1   force =     0.00000632    0.00000971    0.00000000
     atom   17 type  1   force =     0.00000174    0.00000116    0.00000000
     atom   18 type  1   force =     0.00000171   -0.00000163    0.00000000
     atom   19 type  1   force =     0.00000090    0.00000588    0.00000000
     atom   20 type  1   force =    -0.00000000    0.00000126    0.00000000
     atom   21 type  1   force =    -0.00000192   -0.00000676    0.00000000
     atom   22 type  1   force =    -0.00000453   -0.00000405    0.00000000
     atom   23 type  1   force =     0.00000000   -0.00000474    0.00000000
     atom   24 type  1   force =    -0.00000000    0.00000622    0.00000000
     atom   25 type  1   force =    -0.00000174    0.00000116    0.00000000
     atom   26 type  1   force =    -0.00000206    0.00000665    0.00000000
     atom   27 type  1   force =     0.00000000   -0.00000376    0.00000000
     atom   28 type  1   force =    -0.00000977   -0.00000279    0.00000000
     atom   29 type  1   force =     0.00000815   -0.00000270    0.00000000
     atom   30 type  1   force =     0.00000453   -0.00000405    0.00000000
     atom   31 type  1   force =     0.00000351    0.00000302    0.00000000

     Total force =     0.000037     Total SCF correction =     0.000090
     SCF correction compared to forces is large: reduce conv_thr to get better values


     Computing stress (Cartesian axis) and pressure


     negative rho (up, down):  1.938E-05 0.000E+00
          total   stress  (Ry/bohr**3)                   (kbar)     P=    0.00
   0.00000004  -0.00000000  -0.00000000          0.01     -0.00     -0.00
  -0.00000000   0.00000003   0.00000000         -0.00      0.00      0.00
   0.00000000   0.00000000  -0.00000001          0.00      0.00     -0.00


     Writing output data file 5al_planar_2x2_vcr.save/
 
     init_run     :     40.81s CPU     46.78s WALL (       2 calls)
     electrons    :  47162.50s CPU  56121.17s WALL (     207 calls)
     update_pot   :   3180.82s CPU   3238.90s WALL (     205 calls)
     forces       :   2818.02s CPU   2939.58s WALL (     207 calls)
     stress       :   8453.71s CPU   8732.43s WALL (     207 calls)

     Called by init_run:
     wfcinit      :     21.21s CPU     26.41s WALL (       2 calls)
     potinit      :      7.67s CPU      8.09s WALL (       2 calls)
     hinit0       :      8.79s CPU      8.98s WALL (       2 calls)

     Called by electrons:
     c_bands      :  39419.36s CPU  46571.82s WALL (    1923 calls)
     sum_band     :   5296.27s CPU   6491.48s WALL (    1923 calls)
     v_of_rho     :   2162.94s CPU   2557.04s WALL (    2076 calls)
     mix_rho      :    381.65s CPU    570.98s WALL (    1923 calls)

     Called by c_bands:
     init_us_2    :    558.82s CPU    624.67s WALL (    3848 calls)
     cegterg      :  34192.30s CPU  41255.48s WALL (    1923 calls)

     Called by sum_band:

     Called by *egterg:
     h_psi        :  30210.82s CPU  36987.26s WALL (   12795 calls)
     g_psi        :    100.81s CPU    105.37s WALL (   10870 calls)
     cdiaghg      :     98.01s CPU    101.02s WALL (   12534 calls)

     Called by h_psi:
     h_psi:pot    :  30143.66s CPU  36805.80s WALL (   12795 calls)
     h_psi:calbec :   3799.90s CPU   4018.16s WALL (   12795 calls)
     vloc_psi     :  22725.53s CPU  29119.63s WALL (   12795 calls)
     add_vuspsi   :   3618.07s CPU   3667.87s WALL (   12795 calls)

     General routines
     calbec       :   4354.80s CPU   4597.22s WALL (   13830 calls)
     fft          :   1976.19s CPU   2266.69s WALL (   26194 calls)
     ffts         :    141.27s CPU    162.15s WALL (    1923 calls)
     fftw         :  24451.18s CPU  31711.04s WALL (  752502 calls)
 
     Parallel routines
     fft_scatt_xy :   3771.86s CPU   5360.57s WALL (  780619 calls)
     fft_scatt_yz :  12315.73s CPU  13780.34s WALL (  780619 calls)
 
     PWSCF        :    17h 8m CPU        8h19m WALL

      46h
 
   This run was terminated on:  15:59: 1  26Nov2020            

=------------------------------------------------------------------------------=
   JOB DONE.
=------------------------------------------------------------------------------=
