
     Program PWSCF v.6.3MaX starts on 25Nov2020 at 13: 1:16 

     This program is part of the open-source Quantum ESPRESSO suite
     for quantum simulation of materials; please cite
         "P. Giannozzi et al., J. Phys.:Condens. Matter 21 395502 (2009);
         "P. Giannozzi et al., J. Phys.:Condens. Matter 29 465901 (2017);
          URL http://www.quantum-espresso.org", 
     in publications or presentations arising from this work. More details at
     http://www.quantum-espresso.org/quote

     Parallel version (MPI), running on     8 processors

     MPI processes distributed on     4 nodes
     R & G space division:  proc/nbgrp/npool/nimage =       8
     Waiting for input...
     Reading input from standard input

     Current dimensions of program PWSCF are:
     Max number of different atomic species (ntypx) = 10
     Max number of k-points (npk) =  40000
     Max angular momentum in pseudopotentials (lmaxx) =  3

     Subspace diagonalization in iterative solution of the eigenvalue problem:
     a serial algorithm will be used

 
     Parallelization info
     --------------------
     sticks:   dense  smooth     PW     G-vecs:    dense   smooth      PW
     Min        1758    1758    438               252392   252392   31546
     Max        1759    1759    439               252397   252397   31551
     Sum       14071   14071   3505              2019149  2019149  252395
 


     bravais-lattice index     =            4
     lattice parameter (alat)  =      25.2607  a.u.
     unit-cell volume          =   20885.8003 (a.u.)^3
     number of atoms/cell      =           17
     number of atomic types    =            1
     number of electrons       =        51.00
     number of Kohn-Sham states=           31
     kinetic-energy cutoff     =      80.0000  Ry
     charge density cutoff     =     320.0000  Ry
     convergence threshold     =      1.0E-06
     mixing beta               =       0.4000
     number of iterations used =            8  plain     mixing
     Exchange-correlation      = PBE ( 1  4  3  4 0 0)
     nstep                     =          300


     celldm(1)=  25.260725  celldm(2)=   0.000000  celldm(3)=   1.496177
     celldm(4)=   0.000000  celldm(5)=   0.000000  celldm(6)=   0.000000

     crystal axes: (cart. coord. in units of alat)
               a(1) = (   1.000000   0.000000   0.000000 )  
               a(2) = (  -0.500000   0.866025   0.000000 )  
               a(3) = (   0.000000   0.000000   1.496177 )  

     reciprocal axes: (cart. coord. in units 2 pi/alat)
               b(1) = (  1.000000  0.577350  0.000000 )  
               b(2) = (  0.000000  1.154701  0.000000 )  
               b(3) = (  0.000000  0.000000  0.668370 )  


     PseudoPot. # 1 for Al read from file:
     ./Al.upf
     MD5 check sum: 4974d48a734c9d7d1eb6780a1419d19d
     Pseudo is Norm-conserving + core correction, Zval =  3.0
     Generated using ONCVPSP code by D. R. Hamann
     Using radial grid of 1876 points,  6 beta functions with: 
                l(1) =   0
                l(2) =   0
                l(3) =   1
                l(4) =   1
                l(5) =   2
                l(6) =   2

     atomic species   valence    mass     pseudopotential
        Al             3.00    29.98200     Al( 1.00)

      2 Sym. Ops. (no inversion) found



   Cartesian axes

     site n.     atom                  positions (alat units)
         1           Al  tau(   1) = (   0.0000000   0.1924524   0.0000000  )
         2           Al  tau(   2) = (   0.1666687   0.0962261   0.0000000  )
         3           Al  tau(   3) = (   0.3333348   0.1924537   0.0000000  )
         4           Al  tau(   4) = (  -0.1666663   0.4811295   0.0000000  )
         5           Al  tau(   5) = (   0.0000024   0.3849033   0.0000000  )
         6           Al  tau(   6) = (   0.1666686   0.4811309   0.0000000  )
         7           Al  tau(   7) = (   0.3333373   0.3849047   0.0000000  )
         8           Al  tau(   8) = (  -0.3333326   0.7698067   0.0000000  )
         9           Al  tau(   9) = (  -0.1666639   0.6735805   0.0000000  )
        10           Al  tau(  10) = (   0.0000023   0.7698081   0.0000000  )
        11           Al  tau(  11) = (   0.1666710   0.6735818   0.0000000  )
        12           Al  tau(  12) = (   0.6666697   0.1924551   0.0000000  )
        13           Al  tau(  13) = (   0.8333384   0.0962289   0.0000000  )
        14           Al  tau(  14) = (   0.5000035   0.4811323   0.0000000  )
        15           Al  tau(  15) = (   0.6666722   0.3849060   0.0000000  )
        16           Al  tau(  16) = (   0.3333372   0.7698094   0.0000000  )
        17           Al  tau(  17) = (   0.5000059   0.6735832   0.0000000  )

     number of k points=     1  Methfessel-Paxton smearing, width (Ry)=  0.0500
                       cart. coord. in units 2pi/alat
        k(    1) = (   0.0000000   0.0000000   0.0000000), wk =   2.0000000

     Dense  grid:  2019149 G-vectors     FFT dimensions: ( 144, 144, 216)

     Estimated max dynamical RAM per process >     437.36 MB

     Estimated total dynamical RAM >       3.42 GB

     Initial potential from superposition of free atoms

     starting charge   50.95840, renormalised to   51.00000

     negative rho (up, down):  5.196E-05 0.000E+00
     Starting wfcs are   68 randomized atomic wfcs

     total cpu time spent up to now is       18.7 secs

     Self-consistent Calculation

     iteration #  1     ecut=    80.00 Ry     beta= 0.40
     Davidson diagonalization with overlap
     ethr =  1.00E-02,  avg # of iterations =  2.0

     total cpu time spent up to now is       28.1 secs

     total energy              =     -77.03444616 Ry
     Harris-Foulkes estimate   =     -77.31745546 Ry
     estimated scf accuracy    <       0.79316356 Ry

     iteration #  2     ecut=    80.00 Ry     beta= 0.40
     Davidson diagonalization with overlap
     ethr =  1.56E-03,  avg # of iterations =  4.0

     total cpu time spent up to now is       35.2 secs

     total energy              =     -77.00125287 Ry
     Harris-Foulkes estimate   =     -77.25587860 Ry
     estimated scf accuracy    <       0.83121033 Ry

     iteration #  3     ecut=    80.00 Ry     beta= 0.40
     Davidson diagonalization with overlap
     ethr =  1.56E-03,  avg # of iterations =  3.0

     total cpu time spent up to now is       42.1 secs

     total energy              =     -77.12653316 Ry
     Harris-Foulkes estimate   =     -77.18963981 Ry
     estimated scf accuracy    <       0.29329293 Ry

     iteration #  4     ecut=    80.00 Ry     beta= 0.40
     Davidson diagonalization with overlap
     ethr =  5.75E-04,  avg # of iterations =  2.0

     total cpu time spent up to now is       48.7 secs

     total energy              =     -77.14896046 Ry
     Harris-Foulkes estimate   =     -77.16589751 Ry
     estimated scf accuracy    <       0.07244619 Ry

     iteration #  5     ecut=    80.00 Ry     beta= 0.40
     Davidson diagonalization with overlap
     ethr =  1.42E-04,  avg # of iterations =  3.0

     total cpu time spent up to now is       55.9 secs

     total energy              =     -77.15905601 Ry
     Harris-Foulkes estimate   =     -77.16213940 Ry
     estimated scf accuracy    <       0.01726434 Ry

     iteration #  6     ecut=    80.00 Ry     beta= 0.40
     Davidson diagonalization with overlap
     ethr =  3.39E-05,  avg # of iterations =  5.0

     total cpu time spent up to now is       63.6 secs

     total energy              =     -77.16168564 Ry
     Harris-Foulkes estimate   =     -77.16205660 Ry
     estimated scf accuracy    <       0.00248890 Ry

     iteration #  7     ecut=    80.00 Ry     beta= 0.40
     Davidson diagonalization with overlap
     ethr =  4.88E-06,  avg # of iterations =  3.0

     total cpu time spent up to now is       71.1 secs

     total energy              =     -77.16198244 Ry
     Harris-Foulkes estimate   =     -77.16218687 Ry
     estimated scf accuracy    <       0.00082167 Ry

     iteration #  8     ecut=    80.00 Ry     beta= 0.40
     Davidson diagonalization with overlap
     ethr =  1.61E-06,  avg # of iterations =  3.0

     total cpu time spent up to now is       79.1 secs

     total energy              =     -77.16204391 Ry
     Harris-Foulkes estimate   =     -77.16219551 Ry
     estimated scf accuracy    <       0.00090522 Ry

     iteration #  9     ecut=    80.00 Ry     beta= 0.40
     Davidson diagonalization with overlap
     ethr =  1.61E-06,  avg # of iterations =  1.0

     total cpu time spent up to now is       86.3 secs

     total energy              =     -77.16209710 Ry
     Harris-Foulkes estimate   =     -77.16211562 Ry
     estimated scf accuracy    <       0.00007568 Ry

     iteration # 10     ecut=    80.00 Ry     beta= 0.40
     Davidson diagonalization with overlap
     ethr =  1.48E-07,  avg # of iterations =  5.0

     total cpu time spent up to now is       96.2 secs

     total energy              =     -77.16211429 Ry
     Harris-Foulkes estimate   =     -77.16213046 Ry
     estimated scf accuracy    <       0.00011128 Ry

     iteration # 11     ecut=    80.00 Ry     beta= 0.40
     Davidson diagonalization with overlap
     ethr =  1.48E-07,  avg # of iterations =  2.0

     total cpu time spent up to now is      102.7 secs

     total energy              =     -77.16211648 Ry
     Harris-Foulkes estimate   =     -77.16212342 Ry
     estimated scf accuracy    <       0.00003381 Ry

     iteration # 12     ecut=    80.00 Ry     beta= 0.40
     Davidson diagonalization with overlap
     ethr =  6.63E-08,  avg # of iterations =  3.0

     total cpu time spent up to now is      109.7 secs

     total energy              =     -77.16211878 Ry
     Harris-Foulkes estimate   =     -77.16211982 Ry
     estimated scf accuracy    <       0.00000393 Ry

     iteration # 13     ecut=    80.00 Ry     beta= 0.40
     Davidson diagonalization with overlap
     ethr =  7.70E-09,  avg # of iterations =  6.0

     total cpu time spent up to now is      119.2 secs

     total energy              =     -77.16211966 Ry
     Harris-Foulkes estimate   =     -77.16212103 Ry
     estimated scf accuracy    <       0.00000932 Ry

     iteration # 14     ecut=    80.00 Ry     beta= 0.40
     Davidson diagonalization with overlap
     ethr =  7.70E-09,  avg # of iterations =  3.0

     total cpu time spent up to now is      125.9 secs

     total energy              =     -77.16211987 Ry
     Harris-Foulkes estimate   =     -77.16212077 Ry
     estimated scf accuracy    <       0.00000541 Ry

     iteration # 15     ecut=    80.00 Ry     beta= 0.40
     Davidson diagonalization with overlap
     ethr =  7.70E-09,  avg # of iterations =  4.0

     total cpu time spent up to now is      131.6 secs

     total energy              =     -77.16212002 Ry
     Harris-Foulkes estimate   =     -77.16212041 Ry
     estimated scf accuracy    <       0.00000240 Ry

     iteration # 16     ecut=    80.00 Ry     beta= 0.40
     Davidson diagonalization with overlap
     ethr =  4.71E-09,  avg # of iterations =  4.0

     total cpu time spent up to now is      137.9 secs

     End of self-consistent calculation

          k = 0.0000 0.0000 0.0000 (252395 PWs)   bands (ev):

    -9.9964  -9.1542  -9.0979  -9.0979  -9.0598  -9.0597  -8.4088  -7.5382
    -7.4673  -7.4673  -6.7264  -5.8849  -5.8791  -5.8791  -5.6093  -5.6092
    -4.7520  -4.7519  -4.0025  -3.5339  -3.3089  -3.2898  -3.2898  -3.2355
    -3.1475  -3.1133  -3.1133  -3.0990  -3.0989  -2.7511  -2.7511

     the Fermi energy is    -3.1135 ev

!    total energy              =     -77.16211993 Ry
     Harris-Foulkes estimate   =     -77.16212023 Ry
     estimated scf accuracy    <       0.00000033 Ry

     The total energy is the sum of the following terms:

     one-electron contribution =    -269.13863869 Ry
     hartree contribution      =     139.26280360 Ry
     xc contribution           =     -33.51700882 Ry
     ewald contribution        =      86.35193765 Ry
     smearing contrib. (-TS)   =      -0.12121368 Ry

     convergence has been achieved in  16 iterations

     Forces acting on atoms (cartesian axes, Ry/au):

     atom    1 type  1   force =     0.00000115   -0.00950132    0.00000000
     atom    2 type  1   force =    -0.00400405    0.00308253    0.00000000
     atom    3 type  1   force =     0.01925882   -0.01116586    0.00000000
     atom    4 type  1   force =    -0.00821259    0.00476580    0.00000000
     atom    5 type  1   force =    -0.00000581    0.00000138    0.00000000
     atom    6 type  1   force =     0.00822086    0.00475845    0.00000000
     atom    7 type  1   force =    -0.00467828    0.00195422    0.00000000
     atom    8 type  1   force =    -0.00057800   -0.00036263    0.00000000
     atom    9 type  1   force =     0.00068031   -0.00499862    0.00000000
     atom   10 type  1   force =    -0.00000877    0.02226185    0.00000000
     atom   11 type  1   force =    -0.00069102   -0.00501256    0.00000000
     atom   12 type  1   force =    -0.01925887   -0.01116056    0.00000000
     atom   13 type  1   force =     0.00401215    0.00306951    0.00000000
     atom   14 type  1   force =     0.00001359    0.00071652    0.00000000
     atom   15 type  1   force =     0.00465493    0.00196162    0.00000000
     atom   16 type  1   force =     0.00061433   -0.00035904    0.00000000
     atom   17 type  1   force =    -0.00001878   -0.00001129    0.00000000

     Total force =     0.043728     Total SCF correction =     0.000425


     Computing stress (Cartesian axis) and pressure

          total   stress  (Ry/bohr**3)                   (kbar)     P=   -0.80
  -0.00000822   0.00000001   0.00000000         -1.21      0.00      0.00
   0.00000001  -0.00000820   0.00000000          0.00     -1.21      0.00
   0.00000000   0.00000000   0.00000001          0.00      0.00      0.00


     BFGS Geometry Optimization

     number of scf cycles    =   1
     number of bfgs steps    =   0

     enthalpy new            =     -77.1621199342 Ry

     new trust radius        =       0.0222618539 bohr
     new conv_thr            =       0.0000010000 Ry

     new unit-cell volume =  20877.23103 a.u.^3 (  3093.68642 Ang^3 )
     density =      0.27358 g/cm^3

CELL_PARAMETERS (alat= 25.26072511)
   0.999794623   0.000000173   0.000000000
  -0.499897162   0.865847818   0.000000000
   0.000000000   0.000000000   1.496177267

ATOMIC_POSITIONS (angstrom)
Al       0.000001637   2.567033742   0.000000000
Al       2.225350984   1.287661043   0.000000000
Al       4.465094769   2.566172055   0.000000000
Al      -2.231781579   6.432653841   0.000000000
Al       0.000029909   5.144102719   0.000000000
Al       2.231818514   6.432668915   0.000000000
Al       4.452463527   5.145154863   0.000000000
Al      -4.455178778  10.288012361   0.000000000
Al      -2.227043504   8.999529186   0.000000000
Al       0.000028062  10.300001230   0.000000000
Al       2.227136643   8.999540770   0.000000000
Al       8.899621944   2.566193817   0.000000000
Al      11.139403451   1.287692081   0.000000000
Al       6.682381983   6.430549418   0.000000000
Al       8.912307109   5.145177743   0.000000000
Al       4.455263396  10.288052187   0.000000000
Al       6.682397977   9.002205750   0.000000000



     Writing output data file 4al_planar_2x2_vcr.save/
     NEW-OLD atomic charge density approx. for the potential

     negative rho (up, down):  3.809E-07 0.000E+00
     extrapolated charge   50.97908, renormalised to   51.00000

     total cpu time spent up to now is      177.2 secs

     Self-consistent Calculation

     iteration #  1     ecut=    80.00 Ry     beta= 0.40
     Davidson diagonalization with overlap
     ethr =  1.00E-06,  avg # of iterations =  4.0

     negative rho (up, down):  1.934E-07 0.000E+00

     total cpu time spent up to now is      187.0 secs

     total energy              =     -77.16399433 Ry
     Harris-Foulkes estimate   =     -77.26502615 Ry
     estimated scf accuracy    <       0.00014391 Ry

     iteration #  2     ecut=    80.00 Ry     beta= 0.40
     Davidson diagonalization with overlap
     ethr =  2.82E-07,  avg # of iterations =  5.0

     negative rho (up, down):  1.651E-07 0.000E+00

     total cpu time spent up to now is      196.2 secs

     total energy              =     -77.16398857 Ry
     Harris-Foulkes estimate   =     -77.16413007 Ry
     estimated scf accuracy    <       0.00075633 Ry

     iteration #  3     ecut=    80.00 Ry     beta= 0.40
     Davidson diagonalization with overlap
     ethr =  2.82E-07,  avg # of iterations =  4.0

     negative rho (up, down):  1.221E-07 0.000E+00

     total cpu time spent up to now is      203.8 secs

     total energy              =     -77.16405151 Ry
     Harris-Foulkes estimate   =     -77.16406590 Ry
     estimated scf accuracy    <       0.00006438 Ry

     iteration #  4     ecut=    80.00 Ry     beta= 0.40
     Davidson diagonalization with overlap
     ethr =  1.26E-07,  avg # of iterations =  3.0

     negative rho (up, down):  8.257E-08 0.000E+00

     total cpu time spent up to now is      210.2 secs

     total energy              =     -77.16405643 Ry
     Harris-Foulkes estimate   =     -77.16406278 Ry
     estimated scf accuracy    <       0.00002895 Ry

     iteration #  5     ecut=    80.00 Ry     beta= 0.40
     Davidson diagonalization with overlap
     ethr =  5.68E-08,  avg # of iterations =  1.0

     negative rho (up, down):  3.397E-08 0.000E+00

     total cpu time spent up to now is      216.4 secs

     total energy              =     -77.16405939 Ry
     Harris-Foulkes estimate   =     -77.16406039 Ry
     estimated scf accuracy    <       0.00000416 Ry

     iteration #  6     ecut=    80.00 Ry     beta= 0.40
     Davidson diagonalization with overlap
     ethr =  8.16E-09,  avg # of iterations =  4.0

     negative rho (up, down):  1.886E-08 0.000E+00

     total cpu time spent up to now is      224.3 secs

     total energy              =     -77.16405949 Ry
     Harris-Foulkes estimate   =     -77.16406161 Ry
     estimated scf accuracy    <       0.00001202 Ry

     iteration #  7     ecut=    80.00 Ry     beta= 0.40
     Davidson diagonalization with overlap
     ethr =  8.16E-09,  avg # of iterations =  6.0

     negative rho (up, down):  1.019E-08 0.000E+00

     total cpu time spent up to now is      231.4 secs

     total energy              =     -77.16406063 Ry
     Harris-Foulkes estimate   =     -77.16406080 Ry
     estimated scf accuracy    <       0.00000109 Ry

     iteration #  8     ecut=    80.00 Ry     beta= 0.40
     Davidson diagonalization with overlap
     ethr =  2.14E-09,  avg # of iterations =  4.0

     total cpu time spent up to now is      237.0 secs

     End of self-consistent calculation

          k = 0.0000 0.0000 0.0000 (252395 PWs)   bands (ev):

    -9.9963  -9.1515  -9.0994  -9.0993  -9.0556  -9.0554  -8.4039  -7.5359
    -7.4655  -7.4655  -6.7338  -5.8835  -5.8717  -5.8716  -5.6129  -5.6128
    -4.7563  -4.7562  -4.0020  -3.5552  -3.2990  -3.2861  -3.2860  -3.2412
    -3.1448  -3.1120  -3.1119  -3.0975  -3.0975  -2.7446  -2.7445

     the Fermi energy is    -3.1120 ev

!    total energy              =     -77.16406055 Ry
     Harris-Foulkes estimate   =     -77.16406078 Ry
     estimated scf accuracy    <       0.00000036 Ry

     The total energy is the sum of the following terms:

     one-electron contribution =    -269.17431705 Ry
     hartree contribution      =     139.27852237 Ry
     xc contribution           =     -33.51198028 Ry
     ewald contribution        =      86.36390842 Ry
     smearing contrib. (-TS)   =      -0.12019401 Ry

     convergence has been achieved in   8 iterations

     Forces acting on atoms (cartesian axes, Ry/au):

     atom    1 type  1   force =     0.00001625   -0.00789106    0.00000000
     atom    2 type  1   force =    -0.00252089    0.00318621    0.00000000
     atom    3 type  1   force =     0.01913306   -0.01104588    0.00000000
     atom    4 type  1   force =    -0.00681511    0.00395337    0.00000000
     atom    5 type  1   force =    -0.00000826    0.00001810    0.00000000
     atom    6 type  1   force =     0.00682978    0.00395003    0.00000000
     atom    7 type  1   force =    -0.00400416    0.00059523    0.00000000
     atom    8 type  1   force =    -0.00021740   -0.00015338    0.00000000
     atom    9 type  1   force =     0.00148866   -0.00376222    0.00000000
     atom   10 type  1   force =     0.00000230    0.02208541    0.00000000
     atom   11 type  1   force =    -0.00149188   -0.00375915    0.00000000
     atom   12 type  1   force =    -0.01912878   -0.01104157    0.00000000
     atom   13 type  1   force =     0.00249804    0.00318492    0.00000000
     atom   14 type  1   force =     0.00000294    0.00025856    0.00000000
     atom   15 type  1   force =     0.00399450    0.00057692    0.00000000
     atom   16 type  1   force =     0.00023001   -0.00015871    0.00000000
     atom   17 type  1   force =    -0.00000905    0.00000323    0.00000000

     Total force =     0.041818     Total SCF correction =     0.000420


     Computing stress (Cartesian axis) and pressure

          total   stress  (Ry/bohr**3)                   (kbar)     P=   -0.87
  -0.00000886   0.00000000   0.00000000         -1.30      0.00      0.00
   0.00000000  -0.00000887   0.00000000          0.00     -1.30      0.00
   0.00000000   0.00000000   0.00000004          0.00      0.00      0.01


     number of scf cycles    =   2
     number of bfgs steps    =   1

     enthalpy old            =     -77.1621199342 Ry
     enthalpy new            =     -77.1640605534 Ry

     CASE: enthalpy_new < enthalpy_old


     WARNING: bfgs curvature condition failed, Theta= 0.837
     new trust radius        =       0.0333859367 bohr
     new conv_thr            =       0.0000010000 Ry

     new unit-cell volume =  20863.80704 a.u.^3 (  3091.69719 Ang^3 )
     density =      0.27375 g/cm^3

CELL_PARAMETERS (alat= 25.26072511)
   0.999473039   0.000000395   0.000000000
  -0.499736178   0.865569380   0.000000000
   0.000000000   0.000000000   1.496177267

ATOMIC_POSITIONS (angstrom)
Al       0.000009191   2.559289416   0.000000000
Al       2.222043292   1.289744287   0.000000000
Al       4.478946471   2.556503810   0.000000000
Al      -2.237040684   6.434054262   0.000000000
Al       0.000025430   5.142456971   0.000000000
Al       2.237089631   6.434066087   0.000000000
Al       4.447577902   5.144511579   0.000000000
Al      -4.454058745  10.284499669   0.000000000
Al      -2.225458177   8.993152236   0.000000000
Al       0.000027818  10.314348898   0.000000000
Al       2.225549764   8.993160543   0.000000000
Al       8.881474318   2.556530360   0.000000000
Al      11.138406946   1.289771648   0.000000000
Al       6.680240565   6.428870208   0.000000000
Al       8.912883156   5.144530999   0.000000000
Al       4.454167294  10.284540730   0.000000000
Al       6.680239541   8.999310324   0.000000000



     Writing output data file 4al_planar_2x2_vcr.save/
     NEW-OLD atomic charge density approx. for the potential

     negative rho (up, down):  6.034E-07 0.000E+00
     extrapolated charge   50.96721, renormalised to   51.00000

     total cpu time spent up to now is      276.1 secs

     Self-consistent Calculation

     iteration #  1     ecut=    80.00 Ry     beta= 0.40
     Davidson diagonalization with overlap
     ethr =  1.00E-06,  avg # of iterations =  4.0

     negative rho (up, down):  3.116E-07 0.000E+00

     total cpu time spent up to now is      285.8 secs

     total energy              =     -77.16668246 Ry
     Harris-Foulkes estimate   =     -77.32508463 Ry
     estimated scf accuracy    <       0.00022725 Ry

     iteration #  2     ecut=    80.00 Ry     beta= 0.40
     Davidson diagonalization with overlap
     ethr =  4.46E-07,  avg # of iterations =  5.0

     negative rho (up, down):  2.607E-07 0.000E+00

     total cpu time spent up to now is      293.8 secs

     total energy              =     -77.16670415 Ry
     Harris-Foulkes estimate   =     -77.16687570 Ry
     estimated scf accuracy    <       0.00082617 Ry

     iteration #  3     ecut=    80.00 Ry     beta= 0.40
     Davidson diagonalization with overlap
     ethr =  4.46E-07,  avg # of iterations =  4.0

     negative rho (up, down):  1.816E-07 0.000E+00

     total cpu time spent up to now is      300.4 secs

     total energy              =     -77.16677857 Ry
     Harris-Foulkes estimate   =     -77.16679360 Ry
     estimated scf accuracy    <       0.00006317 Ry

     iteration #  4     ecut=    80.00 Ry     beta= 0.40
     Davidson diagonalization with overlap
     ethr =  1.24E-07,  avg # of iterations =  4.0

     negative rho (up, down):  1.251E-07 0.000E+00

     total cpu time spent up to now is      306.3 secs

     total energy              =     -77.16678081 Ry
     Harris-Foulkes estimate   =     -77.16678897 Ry
     estimated scf accuracy    <       0.00003258 Ry

     iteration #  5     ecut=    80.00 Ry     beta= 0.40
     Davidson diagonalization with overlap
     ethr =  6.39E-08,  avg # of iterations =  5.0

     negative rho (up, down):  4.048E-08 0.000E+00

     total cpu time spent up to now is      312.1 secs

     total energy              =     -77.16678403 Ry
     Harris-Foulkes estimate   =     -77.16678790 Ry
     estimated scf accuracy    <       0.00002100 Ry

     iteration #  6     ecut=    80.00 Ry     beta= 0.40
     Davidson diagonalization with overlap
     ethr =  4.12E-08,  avg # of iterations =  4.0

     negative rho (up, down):  2.363E-08 0.000E+00

     total cpu time spent up to now is      318.0 secs

     total energy              =     -77.16678568 Ry
     Harris-Foulkes estimate   =     -77.16678765 Ry
     estimated scf accuracy    <       0.00000882 Ry

     iteration #  7     ecut=    80.00 Ry     beta= 0.40
     Davidson diagonalization with overlap
     ethr =  1.73E-08,  avg # of iterations =  3.0

     negative rho (up, down):  1.639E-08 0.000E+00

     total cpu time spent up to now is      323.6 secs

     total energy              =     -77.16678680 Ry
     Harris-Foulkes estimate   =     -77.16678715 Ry
     estimated scf accuracy    <       0.00000170 Ry

     iteration #  8     ecut=    80.00 Ry     beta= 0.40
     Davidson diagonalization with overlap
     ethr =  3.34E-09,  avg # of iterations =  4.0

     negative rho (up, down):  1.206E-08 0.000E+00

     total cpu time spent up to now is      330.5 secs

     total energy              =     -77.16678697 Ry
     Harris-Foulkes estimate   =     -77.16678721 Ry
     estimated scf accuracy    <       0.00000124 Ry

     iteration #  9     ecut=    80.00 Ry     beta= 0.40
     Davidson diagonalization with overlap
     ethr =  2.43E-09,  avg # of iterations =  2.0

     total cpu time spent up to now is      335.8 secs

     End of self-consistent calculation

          k = 0.0000 0.0000 0.0000 (252395 PWs)   bands (ev):

    -9.9959  -9.1473  -9.1019  -9.1017  -9.0487  -9.0485  -8.3976  -7.5322
    -7.4627  -7.4627  -6.7445  -5.8807  -5.8611  -5.8611  -5.6177  -5.6176
    -4.7623  -4.7623  -4.0012  -3.5880  -3.2844  -3.2802  -3.2801  -3.2486
    -3.1409  -3.1121  -3.1120  -3.0932  -3.0931  -2.7349  -2.7349

     the Fermi energy is    -3.1094 ev

!    total energy              =     -77.16678696 Ry
     Harris-Foulkes estimate   =     -77.16678711 Ry
     estimated scf accuracy    <       0.00000030 Ry

     The total energy is the sum of the following terms:

     one-electron contribution =    -269.23228877 Ry
     hartree contribution      =     139.30326755 Ry
     xc contribution           =     -33.50453507 Ry
     ewald contribution        =      86.38544662 Ry
     smearing contrib. (-TS)   =      -0.11867729 Ry

     convergence has been achieved in   9 iterations

     Forces acting on atoms (cartesian axes, Ry/au):

     atom    1 type  1   force =     0.00001643   -0.00571804    0.00000000
     atom    2 type  1   force =    -0.00039685    0.00327972    0.00000000
     atom    3 type  1   force =     0.01887982   -0.01088915    0.00000000
     atom    4 type  1   force =    -0.00495721    0.00286135    0.00000000
     atom    5 type  1   force =    -0.00000129   -0.00000303    0.00000000
     atom    6 type  1   force =     0.00496779    0.00285185    0.00000000
     atom    7 type  1   force =    -0.00303353   -0.00129751    0.00000000
     atom    8 type  1   force =     0.00029669    0.00017486    0.00000000
     atom    9 type  1   force =     0.00262939   -0.00199186    0.00000000
     atom   10 type  1   force =     0.00000309    0.02181693    0.00000000
     atom   11 type  1   force =    -0.00263351   -0.00198352    0.00000000
     atom   12 type  1   force =    -0.01887797   -0.01089073    0.00000000
     atom   13 type  1   force =     0.00037910    0.00328173    0.00000000
     atom   14 type  1   force =    -0.00000527   -0.00034512    0.00000000
     atom   15 type  1   force =     0.00303016   -0.00129543    0.00000000
     atom   16 type  1   force =    -0.00029585    0.00016157    0.00000000
     atom   17 type  1   force =    -0.00000099   -0.00001362    0.00000000

     Total force =     0.039874     Total SCF correction =     0.000311


     Computing stress (Cartesian axis) and pressure

          total   stress  (Ry/bohr**3)                   (kbar)     P=   -0.96
  -0.00000981   0.00000001   0.00000000         -1.44      0.00      0.00
   0.00000001  -0.00000981   0.00000000          0.00     -1.44      0.00
   0.00000000   0.00000000   0.00000004          0.00      0.00      0.01


     number of scf cycles    =   3
     number of bfgs steps    =   2

     enthalpy old            =     -77.1640605534 Ry
     enthalpy new            =     -77.1667869574 Ry

     CASE: enthalpy_new < enthalpy_old

     new trust radius        =       0.0500627900 bohr
     new conv_thr            =       0.0000010000 Ry

     new unit-cell volume =  20842.38355 a.u.^3 (  3088.52255 Ang^3 )
     density =      0.27404 g/cm^3

CELL_PARAMETERS (alat= 25.26072511)
   0.998959513   0.000000741   0.000000000
  -0.499479115   0.865124917   0.000000000
   0.000000000   0.000000000   1.496177267

ATOMIC_POSITIONS (angstrom)
Al       0.000019738   2.548885951   0.000000000
Al       2.218317194   1.292906403   0.000000000
Al       4.499553168   2.541944196   0.000000000
Al      -2.243756554   6.435306379   0.000000000
Al       0.000023568   5.139813927   0.000000000
Al       2.243820602   6.435308961   0.000000000
Al       4.440688010   5.142216210   0.000000000
Al      -4.451921411  10.279116743   0.000000000
Al      -2.222291551   8.984384484   0.000000000
Al       0.000027384  10.335533113   0.000000000
Al       2.222379895   8.984390302   0.000000000
Al       8.854005471   2.541974097   0.000000000
Al      11.135265792   1.292929760   0.000000000
Al       6.676815563   6.425781039   0.000000000
Al       8.912895610   5.142245834   0.000000000
Al       4.452059956  10.279155026   0.000000000
Al       6.676798469   8.994676355   0.000000000



     Writing output data file 4al_planar_2x2_vcr.save/
     NEW-OLD atomic charge density approx. for the potential

     negative rho (up, down):  9.271E-07 0.000E+00
     extrapolated charge   50.94762, renormalised to   51.00000

     total cpu time spent up to now is      374.8 secs

     Self-consistent Calculation

     iteration #  1     ecut=    80.00 Ry     beta= 0.40
     Davidson diagonalization with overlap
     ethr =  1.00E-06,  avg # of iterations =  6.0

     negative rho (up, down):  4.848E-07 0.000E+00

     total cpu time spent up to now is      385.0 secs

     total energy              =     -77.17038111 Ry
     Harris-Foulkes estimate   =     -77.42355672 Ry
     estimated scf accuracy    <       0.00041439 Ry

     iteration #  2     ecut=    80.00 Ry     beta= 0.40
     Davidson diagonalization with overlap
     ethr =  8.13E-07,  avg # of iterations =  5.0

     negative rho (up, down):  4.111E-07 0.000E+00

     total cpu time spent up to now is      392.5 secs

     total energy              =     -77.17042881 Ry
     Harris-Foulkes estimate   =     -77.17077968 Ry
     estimated scf accuracy    <       0.00181228 Ry

     iteration #  3     ecut=    80.00 Ry     beta= 0.40
     Davidson diagonalization with overlap
     ethr =  8.13E-07,  avg # of iterations =  4.0

     negative rho (up, down):  3.153E-07 0.000E+00

     total cpu time spent up to now is      399.0 secs

     total energy              =     -77.17057066 Ry
     Harris-Foulkes estimate   =     -77.17060901 Ry
     estimated scf accuracy    <       0.00017687 Ry

     iteration #  4     ecut=    80.00 Ry     beta= 0.40
     Davidson diagonalization with overlap
     ethr =  3.47E-07,  avg # of iterations =  5.0

     negative rho (up, down):  2.277E-07 0.000E+00

     total cpu time spent up to now is      405.1 secs

     total energy              =     -77.17057840 Ry
     Harris-Foulkes estimate   =     -77.17059773 Ry
     estimated scf accuracy    <       0.00009455 Ry

     iteration #  5     ecut=    80.00 Ry     beta= 0.40
     Davidson diagonalization with overlap
     ethr =  1.85E-07,  avg # of iterations =  4.0

     negative rho (up, down):  5.477E-08 0.000E+00

     total cpu time spent up to now is      410.8 secs

     total energy              =     -77.17058539 Ry
     Harris-Foulkes estimate   =     -77.17059083 Ry
     estimated scf accuracy    <       0.00002789 Ry

     iteration #  6     ecut=    80.00 Ry     beta= 0.40
     Davidson diagonalization with overlap
     ethr =  5.47E-08,  avg # of iterations =  4.0

     negative rho (up, down):  3.642E-08 0.000E+00

     total cpu time spent up to now is      417.2 secs

     total energy              =     -77.17058773 Ry
     Harris-Foulkes estimate   =     -77.17059191 Ry
     estimated scf accuracy    <       0.00001942 Ry

     iteration #  7     ecut=    80.00 Ry     beta= 0.40
     Davidson diagonalization with overlap
     ethr =  3.81E-08,  avg # of iterations =  3.0

     negative rho (up, down):  2.566E-08 0.000E+00

     total cpu time spent up to now is      423.0 secs

     total energy              =     -77.17058985 Ry
     Harris-Foulkes estimate   =     -77.17059093 Ry
     estimated scf accuracy    <       0.00000569 Ry

     iteration #  8     ecut=    80.00 Ry     beta= 0.40
     Davidson diagonalization with overlap
     ethr =  1.12E-08,  avg # of iterations =  2.0

     total cpu time spent up to now is      428.5 secs

     End of self-consistent calculation

          k = 0.0000 0.0000 0.0000 (252395 PWs)   bands (ev):

    -9.9960  -9.1423  -9.1061  -9.1060  -9.0391  -9.0390  -8.3912  -7.5272
    -7.4591  -7.4591  -6.7606  -5.8765  -5.8475  -5.8475  -5.6243  -5.6243
    -4.7720  -4.7719  -4.0004  -3.6400  -3.2717  -3.2716  -3.2669  -3.2553
    -3.1356  -3.1137  -3.1137  -3.0858  -3.0858  -2.7219  -2.7218

     the Fermi energy is    -3.1057 ev

!    total energy              =     -77.17059008 Ry
     Harris-Foulkes estimate   =     -77.17059045 Ry
     estimated scf accuracy    <       0.00000087 Ry

     The total energy is the sum of the following terms:

     one-electron contribution =    -269.33379180 Ry
     hartree contribution      =     139.34867188 Ry
     xc contribution           =     -33.49447424 Ry
     ewald contribution        =      86.42550557 Ry
     smearing contrib. (-TS)   =      -0.11650149 Ry

     convergence has been achieved in   8 iterations

     Forces acting on atoms (cartesian axes, Ry/au):

     atom    1 type  1   force =     0.00000577   -0.00286354    0.00000000
     atom    2 type  1   force =     0.00249119    0.00339675    0.00000000
     atom    3 type  1   force =     0.01847309   -0.01064007    0.00000000
     atom    4 type  1   force =    -0.00249002    0.00144837    0.00000000
     atom    5 type  1   force =     0.00000618   -0.00000527    0.00000000
     atom    6 type  1   force =     0.00248143    0.00144151    0.00000000
     atom    7 type  1   force =    -0.00168865   -0.00386746    0.00000000
     atom    8 type  1   force =     0.00098753    0.00057546    0.00000000
     atom    9 type  1   force =     0.00417752    0.00043611    0.00000000
     atom   10 type  1   force =    -0.00000571    0.02132698    0.00000000
     atom   11 type  1   force =    -0.00417868    0.00043338    0.00000000
     atom   12 type  1   force =    -0.01847065   -0.01063752    0.00000000
     atom   13 type  1   force =    -0.00248784    0.00340512    0.00000000
     atom   14 type  1   force =    -0.00001052   -0.00114796    0.00000000
     atom   15 type  1   force =     0.00170077   -0.00386592    0.00000000
     atom   16 type  1   force =    -0.00098790    0.00056325    0.00000000
     atom   17 type  1   force =    -0.00000351    0.00000081    0.00000000

     Total force =     0.038714     Total SCF correction =     0.000468


     Computing stress (Cartesian axis) and pressure

          total   stress  (Ry/bohr**3)                   (kbar)     P=   -1.09
  -0.00001115   0.00000000   0.00000000         -1.64      0.00      0.00
   0.00000000  -0.00001115   0.00000000          0.00     -1.64      0.00
   0.00000000   0.00000000   0.00000012          0.00      0.00      0.02


     number of scf cycles    =   4
     number of bfgs steps    =   3

     enthalpy old            =     -77.1667869574 Ry
     enthalpy new            =     -77.1705900758 Ry

     CASE: enthalpy_new < enthalpy_old

     new trust radius        =       0.0750556397 bohr
     new conv_thr            =       0.0000010000 Ry

     new unit-cell volume =  20808.59046 a.u.^3 (  3083.51493 Ang^3 )
     density =      0.27448 g/cm^3

CELL_PARAMETERS (alat= 25.26072511)
   0.998149005   0.000001107   0.000000000
  -0.499073544   0.864423403   0.000000000
   0.000000000   0.000000000   1.496177267

ATOMIC_POSITIONS (angstrom)
Al       0.000026733   2.534624177   0.000000000
Al       2.214181755   1.297689698   0.000000000
Al       4.530248983   2.520024916   0.000000000
Al      -2.252488536   6.436213488   0.000000000
Al       0.000024261   5.135642316   0.000000000
Al       2.252560277   6.436203869   0.000000000
Al       4.430866360   5.137178002   0.000000000
Al      -4.448165858  10.270839510   0.000000000
Al      -2.216597733   8.972153872   0.000000000
Al       0.000018137  10.366839943   0.000000000
Al       2.216679990   8.972145549   0.000000000
Al       8.812478457   2.520062926   0.000000000
Al      11.128578453   1.297708633   0.000000000
Al       6.671406716   6.420459004   0.000000000
Al       8.911870486   5.137220897   0.000000000
Al       4.448349145  10.270874793   0.000000000
Al       6.671362921   8.987372749   0.000000000



     Writing output data file 4al_planar_2x2_vcr.save/
     NEW-OLD atomic charge density approx. for the potential

     negative rho (up, down):  1.407E-06 0.000E+00
     extrapolated charge   50.91724, renormalised to   51.00000

     total cpu time spent up to now is      468.0 secs

     Self-consistent Calculation

     iteration #  1     ecut=    80.00 Ry     beta= 0.40
     Davidson diagonalization with overlap
     ethr =  1.00E-06,  avg # of iterations =  7.0

     negative rho (up, down):  7.480E-07 0.000E+00

     total cpu time spent up to now is      478.0 secs

     total energy              =     -77.17528232 Ry
     Harris-Foulkes estimate   =     -77.57578790 Ry
     estimated scf accuracy    <       0.00108265 Ry

     iteration #  2     ecut=    80.00 Ry     beta= 0.40
     Davidson diagonalization with overlap
     ethr =  2.12E-06,  avg # of iterations =  5.0

     negative rho (up, down):  6.333E-07 0.000E+00

     total cpu time spent up to now is      486.3 secs

     total energy              =     -77.17545024 Ry
     Harris-Foulkes estimate   =     -77.17644227 Ry
     estimated scf accuracy    <       0.00506382 Ry

     iteration #  3     ecut=    80.00 Ry     beta= 0.40
     Davidson diagonalization with overlap
     ethr =  2.12E-06,  avg # of iterations =  3.0

     negative rho (up, down):  4.758E-07 0.000E+00

     total cpu time spent up to now is      493.7 secs

     total energy              =     -77.17585065 Ry
     Harris-Foulkes estimate   =     -77.17590037 Ry
     estimated scf accuracy    <       0.00024905 Ry

     iteration #  4     ecut=    80.00 Ry     beta= 0.40
     Davidson diagonalization with overlap
     ethr =  4.88E-07,  avg # of iterations =  3.0

     negative rho (up, down):  3.416E-07 0.000E+00

     total cpu time spent up to now is      499.9 secs

     total energy              =     -77.17585217 Ry
     Harris-Foulkes estimate   =     -77.17588194 Ry
     estimated scf accuracy    <       0.00014512 Ry

     iteration #  5     ecut=    80.00 Ry     beta= 0.40
     Davidson diagonalization with overlap
     ethr =  2.85E-07,  avg # of iterations =  1.0

     negative rho (up, down):  4.635E-08 0.000E+00

     total cpu time spent up to now is      505.5 secs

     total energy              =     -77.17585454 Ry
     Harris-Foulkes estimate   =     -77.17587341 Ry
     estimated scf accuracy    <       0.00008624 Ry

     iteration #  6     ecut=    80.00 Ry     beta= 0.40
     Davidson diagonalization with overlap
     ethr =  1.69E-07,  avg # of iterations =  4.0

     negative rho (up, down):  3.825E-08 0.000E+00

     total cpu time spent up to now is      511.8 secs

     total energy              =     -77.17586788 Ry
     Harris-Foulkes estimate   =     -77.17587102 Ry
     estimated scf accuracy    <       0.00001421 Ry

     iteration #  7     ecut=    80.00 Ry     beta= 0.40
     Davidson diagonalization with overlap
     ethr =  2.79E-08,  avg # of iterations =  6.0

     negative rho (up, down):  3.191E-08 0.000E+00

     total cpu time spent up to now is      519.0 secs

     total energy              =     -77.17586940 Ry
     Harris-Foulkes estimate   =     -77.17587183 Ry
     estimated scf accuracy    <       0.00001466 Ry

     iteration #  8     ecut=    80.00 Ry     beta= 0.40
     Davidson diagonalization with overlap
     ethr =  2.79E-08,  avg # of iterations =  2.0

     negative rho (up, down):  1.274E-08 0.000E+00

     total cpu time spent up to now is      524.5 secs

     total energy              =     -77.17586891 Ry
     Harris-Foulkes estimate   =     -77.17587031 Ry
     estimated scf accuracy    <       0.00000518 Ry

     iteration #  9     ecut=    80.00 Ry     beta= 0.40
     Davidson diagonalization with overlap
     ethr =  1.02E-08,  avg # of iterations =  4.0

     total cpu time spent up to now is      531.2 secs

     total energy              =     -77.17586951 Ry
     Harris-Foulkes estimate   =     -77.17587010 Ry
     estimated scf accuracy    <       0.00000344 Ry

     iteration # 10     ecut=    80.00 Ry     beta= 0.40
     Davidson diagonalization with overlap
     ethr =  6.74E-09,  avg # of iterations =  3.0

     total cpu time spent up to now is      536.2 secs

     End of self-consistent calculation

          k = 0.0000 0.0000 0.0000 (252395 PWs)   bands (ev):

    -9.9944  -9.1335  -9.1100  -9.1099  -9.0243  -9.0241  -8.3846  -7.5177
    -7.4524  -7.4522  -6.7839  -5.8675  -5.8277  -5.8276  -5.6321  -5.6319
    -4.7848  -4.7847  -3.9980  -3.7245  -3.2734  -3.2567  -3.2567  -3.2272
    -3.1266  -3.1148  -3.1147  -3.0742  -3.0740  -2.7022  -2.7021

     the Fermi energy is    -3.0977 ev

!    total energy              =     -77.17586944 Ry
     Harris-Foulkes estimate   =     -77.17586991 Ry
     estimated scf accuracy    <       0.00000062 Ry

     The total energy is the sum of the following terms:

     one-electron contribution =    -269.50011697 Ry
     hartree contribution      =     139.41935898 Ry
     xc contribution           =     -33.47921276 Ry
     ewald contribution        =      86.49773628 Ry
     smearing contrib. (-TS)   =      -0.11363498 Ry

     convergence has been achieved in  10 iterations

     Forces acting on atoms (cartesian axes, Ry/au):

     atom    1 type  1   force =     0.00000390    0.00087950    0.00000000
     atom    2 type  1   force =     0.00640947    0.00332327    0.00000000
     atom    3 type  1   force =     0.01749901   -0.01007628    0.00000000
     atom    4 type  1   force =     0.00074048   -0.00042705    0.00000000
     atom    5 type  1   force =    -0.00000561    0.00000295    0.00000000
     atom    6 type  1   force =    -0.00075411   -0.00043737    0.00000000
     atom    7 type  1   force =     0.00033811   -0.00724531    0.00000000
     atom    8 type  1   force =     0.00191359    0.00111524    0.00000000
     atom    9 type  1   force =     0.00611677    0.00387912    0.00000000
     atom   10 type  1   force =     0.00000413    0.02019730    0.00000000
     atom   11 type  1   force =    -0.00611337    0.00390933    0.00000000
     atom   12 type  1   force =    -0.01749679   -0.01007698    0.00000000
     atom   13 type  1   force =    -0.00642394    0.00334261    0.00000000
     atom   14 type  1   force =    -0.00000982   -0.00223617    0.00000000
     atom   15 type  1   force =    -0.00030057   -0.00725034    0.00000000
     atom   16 type  1   force =    -0.00194318    0.00109843    0.00000000
     atom   17 type  1   force =     0.00002192    0.00000174    0.00000000

     Total force =     0.039439     Total SCF correction =     0.000612


     Computing stress (Cartesian axis) and pressure

          total   stress  (Ry/bohr**3)                   (kbar)     P=   -1.28
  -0.00001310  -0.00000000   0.00000000         -1.93     -0.00      0.00
  -0.00000000  -0.00001309   0.00000000         -0.00     -1.93      0.00
   0.00000000   0.00000000   0.00000003          0.00      0.00      0.00


     number of scf cycles    =   5
     number of bfgs steps    =   4

     enthalpy old            =     -77.1705900758 Ry
     enthalpy new            =     -77.1758694429 Ry

     CASE: enthalpy_new < enthalpy_old

     new trust radius        =       0.1124921916 bohr
     new conv_thr            =       0.0000010000 Ry

     new unit-cell volume =  20755.29748 a.u.^3 (  3075.61773 Ang^3 )
     density =      0.27519 g/cm^3

CELL_PARAMETERS (alat= 25.26072511)
   0.996869222   0.000001597   0.000000000
  -0.498433229   0.863316185   0.000000000
   0.000000000   0.000000000   1.496177267

ATOMIC_POSITIONS (angstrom)
Al       0.000035793   2.514766702   0.000000000
Al       2.209823062   1.304773057   0.000000000
Al       4.575895906   2.487039468   0.000000000
Al      -2.263976720   6.436314042   0.000000000
Al       0.000014281   5.129066876   0.000000000
Al       2.264058175   6.436283523   0.000000000
Al       4.416852940   5.127566773   0.000000000
Al      -4.441772212  10.258042840   0.000000000
Al      -2.206895382   8.954977303   0.000000000
Al       0.000010799  10.413016332   0.000000000
Al       2.206969746   8.954970608   0.000000000
Al       8.749728427   2.487087590   0.000000000
Al      11.115833096   1.304790400   0.000000000
Al       6.662868812   6.411510750   0.000000000
Al       8.908771598   5.127623292   0.000000000
Al       4.442004620  10.258071647   0.000000000
Al       6.662797685   8.975845721   0.000000000



     Writing output data file 4al_planar_2x2_vcr.save/
     NEW-OLD atomic charge density approx. for the potential

     negative rho (up, down):  2.103E-06 0.000E+00
     extrapolated charge   50.86916, renormalised to   51.00000

     total cpu time spent up to now is      575.3 secs

     Self-consistent Calculation

     iteration #  1     ecut=    80.00 Ry     beta= 0.40
     Davidson diagonalization with overlap
     ethr =  1.00E-06,  avg # of iterations =  8.0

     negative rho (up, down):  1.134E-06 0.000E+00

     total cpu time spent up to now is      587.6 secs

     total energy              =     -77.18095838 Ry
     Harris-Foulkes estimate   =     -77.81588787 Ry
     estimated scf accuracy    <       0.00339907 Ry

     iteration #  2     ecut=    80.00 Ry     beta= 0.40
     Davidson diagonalization with overlap
     ethr =  6.66E-06,  avg # of iterations =  5.0

     negative rho (up, down):  9.598E-07 0.000E+00

     total cpu time spent up to now is      595.4 secs

     total energy              =     -77.18143140 Ry
     Harris-Foulkes estimate   =     -77.18481338 Ry
     estimated scf accuracy    <       0.01727437 Ry

     iteration #  3     ecut=    80.00 Ry     beta= 0.40
     Davidson diagonalization with overlap
     ethr =  6.66E-06,  avg # of iterations =  3.0

     negative rho (up, down):  7.332E-07 0.000E+00

     total cpu time spent up to now is      602.1 secs

     total energy              =     -77.18281893 Ry
     Harris-Foulkes estimate   =     -77.18293385 Ry
     estimated scf accuracy    <       0.00063109 Ry

     iteration #  4     ecut=    80.00 Ry     beta= 0.40
     Davidson diagonalization with overlap
     ethr =  1.24E-06,  avg # of iterations =  4.0

     negative rho (up, down):  5.536E-07 0.000E+00

     total cpu time spent up to now is      608.2 secs

     total energy              =     -77.18282134 Ry
     Harris-Foulkes estimate   =     -77.18288843 Ry
     estimated scf accuracy    <       0.00037533 Ry

     iteration #  5     ecut=    80.00 Ry     beta= 0.40
     Davidson diagonalization with overlap
     ethr =  7.36E-07,  avg # of iterations =  1.0

     negative rho (up, down):  7.089E-08 0.000E+00

     total cpu time spent up to now is      613.4 secs

     total energy              =     -77.18280682 Ry
     Harris-Foulkes estimate   =     -77.18286935 Ry
     estimated scf accuracy    <       0.00025457 Ry

     iteration #  6     ecut=    80.00 Ry     beta= 0.40
     Davidson diagonalization with overlap
     ethr =  4.99E-07,  avg # of iterations =  3.0

     negative rho (up, down):  4.057E-08 0.000E+00

     total cpu time spent up to now is      619.6 secs

     total energy              =     -77.18284776 Ry
     Harris-Foulkes estimate   =     -77.18287349 Ry
     estimated scf accuracy    <       0.00016380 Ry

     iteration #  7     ecut=    80.00 Ry     beta= 0.40
     Davidson diagonalization with overlap
     ethr =  3.21E-07,  avg # of iterations =  4.0

     negative rho (up, down):  3.370E-08 0.000E+00

     total cpu time spent up to now is      624.7 secs

     total energy              =     -77.18285659 Ry
     Harris-Foulkes estimate   =     -77.18286493 Ry
     estimated scf accuracy    <       0.00004773 Ry

     iteration #  8     ecut=    80.00 Ry     beta= 0.40
     Davidson diagonalization with overlap
     ethr =  9.36E-08,  avg # of iterations =  4.0

     negative rho (up, down):  1.355E-08 0.000E+00

     total cpu time spent up to now is      630.2 secs

     total energy              =     -77.18285122 Ry
     Harris-Foulkes estimate   =     -77.18285959 Ry
     estimated scf accuracy    <       0.00002406 Ry

     iteration #  9     ecut=    80.00 Ry     beta= 0.40
     Davidson diagonalization with overlap
     ethr =  4.72E-08,  avg # of iterations =  3.0

     negative rho (up, down):  1.063E-08 0.000E+00

     total cpu time spent up to now is      636.3 secs

     total energy              =     -77.18285594 Ry
     Harris-Foulkes estimate   =     -77.18285678 Ry
     estimated scf accuracy    <       0.00000448 Ry

     iteration # 10     ecut=    80.00 Ry     beta= 0.40
     Davidson diagonalization with overlap
     ethr =  8.79E-09,  avg # of iterations =  4.0

     negative rho (up, down):  1.092E-08 0.000E+00

     total cpu time spent up to now is      642.1 secs

     total energy              =     -77.18285628 Ry
     Harris-Foulkes estimate   =     -77.18285653 Ry
     estimated scf accuracy    <       0.00000133 Ry

     iteration # 11     ecut=    80.00 Ry     beta= 0.40
     Davidson diagonalization with overlap
     ethr =  2.61E-09,  avg # of iterations =  2.0

     total cpu time spent up to now is      647.2 secs

     End of self-consistent calculation

          k = 0.0000 0.0000 0.0000 (252395 PWs)   bands (ev):

    -9.9934  -9.1206  -9.1162  -9.1161  -9.0058  -9.0057  -8.3836  -7.5054
    -7.4438  -7.4436  -6.8235  -5.8530  -5.8029  -5.8027  -5.6442  -5.6441
    -4.8051  -4.8051  -3.9953  -3.8670  -3.2901  -3.2347  -3.2346  -3.1778
    -3.1159  -3.1158  -3.1128  -3.0593  -3.0593  -2.6762  -2.6761

     the Fermi energy is    -3.0847 ev

!    total energy              =     -77.18285607 Ry
     Harris-Foulkes estimate   =     -77.18285639 Ry
     estimated scf accuracy    <       0.00000062 Ry

     The total energy is the sum of the following terms:

     one-electron contribution =    -269.78841233 Ry
     hartree contribution      =     139.54552169 Ry
     xc contribution           =     -33.45861690 Ry
     ewald contribution        =      86.62959010 Ry
     smearing contrib. (-TS)   =      -0.11093863 Ry

     convergence has been achieved in  11 iterations

     Forces acting on atoms (cartesian axes, Ry/au):

     atom    1 type  1   force =    -0.00000048    0.00599347    0.00000000
     atom    2 type  1   force =     0.01203034    0.00284362    0.00000000
     atom    3 type  1   force =     0.01493058   -0.00858948    0.00000000
     atom    4 type  1   force =     0.00518795   -0.00302264    0.00000000
     atom    5 type  1   force =     0.00000018    0.00000047    0.00000000
     atom    6 type  1   force =    -0.00520119   -0.00301973    0.00000000
     atom    7 type  1   force =     0.00358023   -0.01188022    0.00000000
     atom    8 type  1   force =     0.00315074    0.00183596    0.00000000
     atom    9 type  1   force =     0.00847370    0.00901227    0.00000000
     atom   10 type  1   force =     0.00000996    0.01725703    0.00000000
     atom   11 type  1   force =    -0.00845872    0.00903349    0.00000000
     atom   12 type  1   force =    -0.01492862   -0.00859721    0.00000000
     atom   13 type  1   force =    -0.01203000    0.00282993    0.00000000
     atom   14 type  1   force =    -0.00001061   -0.00367882    0.00000000
     atom   15 type  1   force =    -0.00356290   -0.01187320    0.00000000
     atom   16 type  1   force =    -0.00319117    0.00184162    0.00000000
     atom   17 type  1   force =     0.00002001    0.00001344    0.00000000

     Total force =     0.044263     Total SCF correction =     0.000573


     Computing stress (Cartesian axis) and pressure

          total   stress  (Ry/bohr**3)                   (kbar)     P=   -1.55
  -0.00001582  -0.00000001   0.00000000         -2.33     -0.00      0.00
  -0.00000001  -0.00001583   0.00000000         -0.00     -2.33      0.00
   0.00000000   0.00000000  -0.00000001          0.00      0.00     -0.00


     number of scf cycles    =   6
     number of bfgs steps    =   5

     enthalpy old            =     -77.1758694429 Ry
     enthalpy new            =     -77.1828560658 Ry

     CASE: enthalpy_new < enthalpy_old

     new trust radius        =       0.1685222026 bohr
     new conv_thr            =       0.0000010000 Ry

     new unit-cell volume =  20670.18822 a.u.^3 (  3063.00584 Ang^3 )
     density =      0.27632 g/cm^3

CELL_PARAMETERS (alat= 25.26072511)
   0.994822375   0.000002289   0.000000000
  -0.497409205   0.861544709   0.000000000
   0.000000000   0.000000000   1.496177267

ATOMIC_POSITIONS (angstrom)
Al       0.000046106   2.487018529   0.000000000
Al       2.206296684   1.315063005   0.000000000
Al       4.643504048   2.437394436   0.000000000
Al      -2.278853054   6.434428256   0.000000000
Al       0.000001559   5.118547572   0.000000000
Al       2.278952881   6.434377540   0.000000000
Al       4.397074599   5.109725773   0.000000000
Al      -4.430885447  10.237950212   0.000000000
Al      -2.190590158   8.931029400   0.000000000
Al       0.000003518  10.480648763   0.000000000
Al       2.190659861   8.931014062   0.000000000
Al       8.654765227   2.437452769   0.000000000
Al      11.092015396   1.315045653   0.000000000
Al       6.649215426   6.396422116   0.000000000
Al       8.901156444   5.109811180   0.000000000
Al       4.431190176  10.237990572   0.000000000
Al       6.649093175   8.957413699   0.000000000



     Writing output data file 4al_planar_2x2_vcr.save/
     NEW-OLD atomic charge density approx. for the potential

     negative rho (up, down):  3.526E-06 0.000E+00
     extrapolated charge   50.79018, renormalised to   51.00000

     total cpu time spent up to now is      686.6 secs

     Self-consistent Calculation

     iteration #  1     ecut=    80.00 Ry     beta= 0.40
     Davidson diagonalization with overlap
     ethr =  1.00E-06,  avg # of iterations =  9.0

     negative rho (up, down):  1.949E-06 0.000E+00

     total cpu time spent up to now is      699.8 secs

     total energy              =     -77.18555974 Ry
     Harris-Foulkes estimate   =     -78.20797888 Ry
     estimated scf accuracy    <       0.00933522 Ry

     iteration #  2     ecut=    80.00 Ry     beta= 0.40
     Davidson diagonalization with overlap
     ethr =  1.83E-05,  avg # of iterations = 11.0

     negative rho (up, down):  1.667E-06 0.000E+00

     total cpu time spent up to now is      708.4 secs

     total energy              =     -77.18597641 Ry
     Harris-Foulkes estimate   =     -77.19698986 Ry
     estimated scf accuracy    <       0.06138191 Ry

     iteration #  3     ecut=    80.00 Ry     beta= 0.40
     Davidson diagonalization with overlap
     ethr =  1.83E-05,  avg # of iterations =  4.0

     negative rho (up, down):  1.355E-06 0.000E+00

     total cpu time spent up to now is      714.8 secs

     total energy              =     -77.19035363 Ry
     Harris-Foulkes estimate   =     -77.19067196 Ry
     estimated scf accuracy    <       0.00254309 Ry

     iteration #  4     ecut=    80.00 Ry     beta= 0.40
     Davidson diagonalization with overlap
     ethr =  4.99E-06,  avg # of iterations =  3.0

     negative rho (up, down):  1.014E-06 0.000E+00

     total cpu time spent up to now is      720.1 secs

     total energy              =     -77.19029045 Ry
     Harris-Foulkes estimate   =     -77.19050497 Ry
     estimated scf accuracy    <       0.00152240 Ry

     iteration #  5     ecut=    80.00 Ry     beta= 0.40
     Davidson diagonalization with overlap
     ethr =  2.99E-06,  avg # of iterations =  1.0

     negative rho (up, down):  9.618E-08 0.000E+00

     total cpu time spent up to now is      725.1 secs

     total energy              =     -77.19007077 Ry
     Harris-Foulkes estimate   =     -77.19040942 Ry
     estimated scf accuracy    <       0.00120602 Ry

     iteration #  6     ecut=    80.00 Ry     beta= 0.40
     Davidson diagonalization with overlap
     ethr =  2.36E-06,  avg # of iterations =  3.0

     negative rho (up, down):  5.581E-08 0.000E+00

     total cpu time spent up to now is      731.0 secs

     total energy              =     -77.19027335 Ry
     Harris-Foulkes estimate   =     -77.19032450 Ry
     estimated scf accuracy    <       0.00030531 Ry

     iteration #  7     ecut=    80.00 Ry     beta= 0.40
     Davidson diagonalization with overlap
     ethr =  5.99E-07,  avg # of iterations =  3.0

     negative rho (up, down):  4.129E-08 0.000E+00

     total cpu time spent up to now is      736.6 secs

     total energy              =     -77.19029234 Ry
     Harris-Foulkes estimate   =     -77.19032272 Ry
     estimated scf accuracy    <       0.00016010 Ry

     iteration #  8     ecut=    80.00 Ry     beta= 0.40
     Davidson diagonalization with overlap
     ethr =  3.14E-07,  avg # of iterations =  1.0

     negative rho (up, down):  2.095E-08 0.000E+00

     total cpu time spent up to now is      741.5 secs

     total energy              =     -77.19027840 Ry
     Harris-Foulkes estimate   =     -77.19029968 Ry
     estimated scf accuracy    <       0.00007070 Ry

     iteration #  9     ecut=    80.00 Ry     beta= 0.40
     Davidson diagonalization with overlap
     ethr =  1.39E-07,  avg # of iterations =  3.0

     negative rho (up, down):  1.841E-08 0.000E+00

     total cpu time spent up to now is      747.5 secs

     total energy              =     -77.19028905 Ry
     Harris-Foulkes estimate   =     -77.19029111 Ry
     estimated scf accuracy    <       0.00001131 Ry

     iteration # 10     ecut=    80.00 Ry     beta= 0.40
     Davidson diagonalization with overlap
     ethr =  2.22E-08,  avg # of iterations =  3.0

     negative rho (up, down):  1.945E-08 0.000E+00

     total cpu time spent up to now is      753.7 secs

     total energy              =     -77.19029036 Ry
     Harris-Foulkes estimate   =     -77.19029109 Ry
     estimated scf accuracy    <       0.00000290 Ry

     iteration # 11     ecut=    80.00 Ry     beta= 0.40
     Davidson diagonalization with overlap
     c_bands:  1 eigenvalues not converged
     ethr =  5.69E-09,  avg # of iterations = 20.0

     negative rho (up, down):  1.989E-08 0.000E+00

     total cpu time spent up to now is      762.2 secs

     total energy              =     -77.19089507 Ry
     Harris-Foulkes estimate   =     -77.19089109 Ry
     estimated scf accuracy    <       0.00041001 Ry

     iteration # 12     ecut=    80.00 Ry     beta= 0.40
     Davidson diagonalization with overlap
     ethr =  5.69E-09,  avg # of iterations =  3.0

     total cpu time spent up to now is      767.9 secs

     total energy              =     -77.19089957 Ry
     Harris-Foulkes estimate   =     -77.19089529 Ry
     estimated scf accuracy    <       0.00042689 Ry

     iteration # 13     ecut=    80.00 Ry     beta= 0.40
     Davidson diagonalization with overlap
     ethr =  5.69E-09,  avg # of iterations =  2.0

     total cpu time spent up to now is      773.2 secs

     total energy              =     -77.19090507 Ry
     Harris-Foulkes estimate   =     -77.19089975 Ry
     estimated scf accuracy    <       0.00044232 Ry

     iteration # 14     ecut=    80.00 Ry     beta= 0.40
     Davidson diagonalization with overlap
     ethr =  5.69E-09,  avg # of iterations =  1.0

     total cpu time spent up to now is      778.6 secs

     total energy              =     -77.19091240 Ry
     Harris-Foulkes estimate   =     -77.19090529 Ry
     estimated scf accuracy    <       0.00047628 Ry

     iteration # 15     ecut=    80.00 Ry     beta= 0.40
     Davidson diagonalization with overlap
     ethr =  5.69E-09,  avg # of iterations =  1.0

     total cpu time spent up to now is      783.9 secs

     total energy              =     -77.19090633 Ry
     Harris-Foulkes estimate   =     -77.19091251 Ry
     estimated scf accuracy    <       0.00050690 Ry

     iteration # 16     ecut=    80.00 Ry     beta= 0.40
     Davidson diagonalization with overlap
     ethr =  5.69E-09,  avg # of iterations =  1.0

     total cpu time spent up to now is      789.4 secs

     total energy              =     -77.19089426 Ry
     Harris-Foulkes estimate   =     -77.19090650 Ry
     estimated scf accuracy    <       0.00048104 Ry

     iteration # 17     ecut=    80.00 Ry     beta= 0.40
     Davidson diagonalization with overlap
     ethr =  5.69E-09,  avg # of iterations =  1.0

     total cpu time spent up to now is      794.9 secs

     total energy              =     -77.19090806 Ry
     Harris-Foulkes estimate   =     -77.19089462 Ry
     estimated scf accuracy    <       0.00043288 Ry

     iteration # 18     ecut=    80.00 Ry     beta= 0.40
     Davidson diagonalization with overlap
     ethr =  5.69E-09,  avg # of iterations =  1.0

     total cpu time spent up to now is      800.1 secs

     total energy              =     -77.19091097 Ry
     Harris-Foulkes estimate   =     -77.19090836 Ry
     estimated scf accuracy    <       0.00048597 Ry

     iteration # 19     ecut=    80.00 Ry     beta= 0.40
     Davidson diagonalization with overlap
     ethr =  5.69E-09,  avg # of iterations =  1.0

     negative rho (up, down):  1.624E-07 0.000E+00

     total cpu time spent up to now is      805.0 secs

     total energy              =     -77.19072686 Ry
     Harris-Foulkes estimate   =     -77.19091111 Ry
     estimated scf accuracy    <       0.00050132 Ry

     iteration # 20     ecut=    80.00 Ry     beta= 0.40
     Davidson diagonalization with overlap
     ethr =  5.69E-09,  avg # of iterations = 11.0

     negative rho (up, down):  3.077E-08 0.000E+00

     total cpu time spent up to now is      816.8 secs

     total energy              =     -77.19080220 Ry
     Harris-Foulkes estimate   =     -77.19081753 Ry
     estimated scf accuracy    <       0.00010135 Ry

     iteration # 21     ecut=    80.00 Ry     beta= 0.40
     Davidson diagonalization with overlap
     ethr =  5.69E-09,  avg # of iterations =  6.0

     negative rho (up, down):  2.303E-08 0.000E+00

     total cpu time spent up to now is      825.5 secs

     total energy              =     -77.19080828 Ry
     Harris-Foulkes estimate   =     -77.19081133 Ry
     estimated scf accuracy    <       0.00001308 Ry

     iteration # 22     ecut=    80.00 Ry     beta= 0.40
     Davidson diagonalization with overlap
     ethr =  5.69E-09,  avg # of iterations =  6.0

     negative rho (up, down):  1.799E-08 0.000E+00

     total cpu time spent up to now is      832.8 secs

     total energy              =     -77.19080864 Ry
     Harris-Foulkes estimate   =     -77.19081178 Ry
     estimated scf accuracy    <       0.00001713 Ry

     iteration # 23     ecut=    80.00 Ry     beta= 0.40
     Davidson diagonalization with overlap
     ethr =  5.69E-09,  avg # of iterations =  5.0

     total cpu time spent up to now is      839.8 secs

     total energy              =     -77.19081026 Ry
     Harris-Foulkes estimate   =     -77.19081054 Ry
     estimated scf accuracy    <       0.00000239 Ry

     iteration # 24     ecut=    80.00 Ry     beta= 0.40
     Davidson diagonalization with overlap
     ethr =  4.68E-09,  avg # of iterations =  3.0

     total cpu time spent up to now is      845.3 secs

     End of self-consistent calculation

          k = 0.0000 0.0000 0.0000 (252395 PWs)   bands (ev):

    -9.9939  -9.1255  -9.1250  -9.1012  -8.9848  -8.9844  -8.4028  -7.4898
    -7.4328  -7.4328  -6.8934  -5.8299  -5.7778  -5.7776  -5.6604  -5.6602
    -4.8357  -4.8356  -4.1073  -3.9931  -3.3114  -3.2021  -3.2019  -3.1162
    -3.1158  -3.1044  -3.0912  -3.0426  -3.0422  -2.6453  -2.6451

     the Fermi energy is    -3.0630 ev

!    total energy              =     -77.19080998 Ry
     Harris-Foulkes estimate   =     -77.19081057 Ry
     estimated scf accuracy    <       0.00000084 Ry

     The total energy is the sum of the following terms:

     one-electron contribution =    -270.30224162 Ry
     hartree contribution      =     139.77348689 Ry
     xc contribution           =     -33.43107498 Ry
     ewald contribution        =      86.88011242 Ry
     smearing contrib. (-TS)   =      -0.11109269 Ry

     convergence has been achieved in  24 iterations

     Forces acting on atoms (cartesian axes, Ry/au):

     atom    1 type  1   force =     0.00000689    0.01291177    0.00000000
     atom    2 type  1   force =     0.01978167    0.00128099    0.00000000
     atom    3 type  1   force =     0.00915368   -0.00524411    0.00000000
     atom    4 type  1   force =     0.01114607   -0.00646559    0.00000000
     atom    5 type  1   force =     0.00001067   -0.00003202    0.00000000
     atom    6 type  1   force =    -0.01116101   -0.00647787    0.00000000
     atom    7 type  1   force =     0.00878580   -0.01782609    0.00000000
     atom    8 type  1   force =     0.00479244    0.00281193    0.00000000
     atom    9 type  1   force =     0.01102434    0.01649101    0.00000000
     atom   10 type  1   force =    -0.00000812    0.01058655    0.00000000
     atom   11 type  1   force =    -0.01100739    0.01650408    0.00000000
     atom   12 type  1   force =    -0.00912868   -0.00523999    0.00000000
     atom   13 type  1   force =    -0.01981258    0.00131353    0.00000000
     atom   14 type  1   force =    -0.00003279   -0.00559194    0.00000000
     atom   15 type  1   force =    -0.00874373   -0.01784730    0.00000000
     atom   16 type  1   force =    -0.00485238    0.00280869    0.00000000
     atom   17 type  1   force =     0.00004511    0.00001636    0.00000000

     Total force =     0.057369     Total SCF correction =     0.000725


     Computing stress (Cartesian axis) and pressure

          total   stress  (Ry/bohr**3)                   (kbar)     P=   -1.91
  -0.00001951  -0.00000002   0.00000000         -2.87     -0.00      0.00
  -0.00000002  -0.00001951   0.00000000         -0.00     -2.87      0.00
   0.00000000   0.00000000  -0.00000001          0.00      0.00     -0.00


     number of scf cycles    =   7
     number of bfgs steps    =   6

     enthalpy old            =     -77.1828560658 Ry
     enthalpy new            =     -77.1908099791 Ry

     CASE: enthalpy_new < enthalpy_old

     new trust radius        =       0.2522647086 bohr
     new conv_thr            =       0.0000010000 Ry

     new unit-cell volume =  20528.34381 a.u.^3 (  3041.98667 Ang^3 )
     density =      0.27823 g/cm^3

CELL_PARAMETERS (alat= 25.26072511)
   0.991401380   0.000002939   0.000000000
  -0.495698145   0.858584730   0.000000000
   0.000000000   0.000000000   1.496177267

ATOMIC_POSITIONS (angstrom)
Al       0.000069596   2.449212834   0.000000000
Al       2.207819063   1.329113261   0.000000000
Al       4.742633859   2.362428820   0.000000000
Al      -2.296322946   6.427005572   0.000000000
Al      -0.000012418   5.100939536   0.000000000
Al       2.296450824   6.426907866   0.000000000
Al       4.370426087   5.075048476   0.000000000
Al      -4.411324459  10.205191162   0.000000000
Al      -2.162336865   8.899005205   0.000000000
Al      -0.000031832  10.577678906   0.000000000
Al       2.162393818   8.898960035   0.000000000
Al       8.509938982   2.362515206   0.000000000
Al      11.044753179   1.329077859   0.000000000
Al       6.626372178   6.369603975   0.000000000
Al       8.882033065   5.075142393   0.000000000
Al       4.411720995  10.205244621   0.000000000
Al       6.626208700   8.926618427   0.000000000



     Writing output data file 4al_planar_2x2_vcr.save/
     NEW-OLD atomic charge density approx. for the potential

     negative rho (up, down):  7.390E-06 0.000E+00
     extrapolated charge   50.64789, renormalised to   51.00000

     total cpu time spent up to now is      886.6 secs

     Self-consistent Calculation

     iteration #  1     ecut=    80.00 Ry     beta= 0.40
     Davidson diagonalization with overlap
     ethr =  1.00E-06,  avg # of iterations = 10.0

     negative rho (up, down):  4.196E-06 0.000E+00

     total cpu time spent up to now is      900.5 secs

     total energy              =     -77.18603669 Ry
     Harris-Foulkes estimate   =     -78.91085276 Ry
     estimated scf accuracy    <       0.02020661 Ry

     iteration #  2     ecut=    80.00 Ry     beta= 0.40
     Davidson diagonalization with overlap
     ethr =  3.96E-05,  avg # of iterations =  9.0

     negative rho (up, down):  3.593E-06 0.000E+00

     total cpu time spent up to now is      907.9 secs

     total energy              =     -77.18800096 Ry
     Harris-Foulkes estimate   =     -77.21703187 Ry
     estimated scf accuracy    <       0.17768143 Ry

     iteration #  3     ecut=    80.00 Ry     beta= 0.40
     Davidson diagonalization with overlap
     ethr =  3.96E-05,  avg # of iterations =  4.0

     negative rho (up, down):  2.992E-06 0.000E+00

     total cpu time spent up to now is      914.1 secs

     total energy              =     -77.19956532 Ry
     Harris-Foulkes estimate   =     -77.20018599 Ry
     estimated scf accuracy    <       0.00677121 Ry

     iteration #  4     ecut=    80.00 Ry     beta= 0.40
     Davidson diagonalization with overlap
     ethr =  1.33E-05,  avg # of iterations =  3.0

     negative rho (up, down):  1.860E-06 0.000E+00

     total cpu time spent up to now is      919.5 secs

     total energy              =     -77.19904463 Ry
     Harris-Foulkes estimate   =     -77.19977044 Ry
     estimated scf accuracy    <       0.00453215 Ry

     iteration #  5     ecut=    80.00 Ry     beta= 0.40
     Davidson diagonalization with overlap
     ethr =  8.89E-06,  avg # of iterations =  1.0

     negative rho (up, down):  2.078E-07 0.000E+00

     total cpu time spent up to now is      924.4 secs

     total energy              =     -77.19852043 Ry
     Harris-Foulkes estimate   =     -77.19940076 Ry
     estimated scf accuracy    <       0.00338111 Ry

     iteration #  6     ecut=    80.00 Ry     beta= 0.40
     Davidson diagonalization with overlap
     ethr =  6.63E-06,  avg # of iterations =  4.0

     negative rho (up, down):  1.495E-07 0.000E+00

     total cpu time spent up to now is      929.8 secs

     total energy              =     -77.19906432 Ry
     Harris-Foulkes estimate   =     -77.19913001 Ry
     estimated scf accuracy    <       0.00040736 Ry

     iteration #  7     ecut=    80.00 Ry     beta= 0.40
     Davidson diagonalization with overlap
     ethr =  7.99E-07,  avg # of iterations =  5.0

     negative rho (up, down):  1.210E-07 0.000E+00

     total cpu time spent up to now is      936.6 secs

     total energy              =     -77.19911802 Ry
     Harris-Foulkes estimate   =     -77.19919508 Ry
     estimated scf accuracy    <       0.00057411 Ry

     iteration #  8     ecut=    80.00 Ry     beta= 0.40
     Davidson diagonalization with overlap
     ethr =  7.99E-07,  avg # of iterations =  1.0

     negative rho (up, down):  6.574E-08 0.000E+00

     total cpu time spent up to now is      942.4 secs

     total energy              =     -77.19907908 Ry
     Harris-Foulkes estimate   =     -77.19913291 Ry
     estimated scf accuracy    <       0.00025646 Ry

     iteration #  9     ecut=    80.00 Ry     beta= 0.40
     Davidson diagonalization with overlap
     ethr =  5.03E-07,  avg # of iterations =  3.0

     negative rho (up, down):  4.068E-08 0.000E+00

     total cpu time spent up to now is      947.8 secs

     total energy              =     -77.19909209 Ry
     Harris-Foulkes estimate   =     -77.19910245 Ry
     estimated scf accuracy    <       0.00004488 Ry

     iteration # 10     ecut=    80.00 Ry     beta= 0.40
     Davidson diagonalization with overlap
     ethr =  8.80E-08,  avg # of iterations =  4.0

     negative rho (up, down):  4.560E-08 0.000E+00

     total cpu time spent up to now is      954.9 secs

     total energy              =     -77.19910297 Ry
     Harris-Foulkes estimate   =     -77.19910500 Ry
     estimated scf accuracy    <       0.00001518 Ry

     iteration # 11     ecut=    80.00 Ry     beta= 0.40
     Davidson diagonalization with overlap
     ethr =  2.98E-08,  avg # of iterations =  1.0

     total cpu time spent up to now is      960.3 secs

     total energy              =     -77.19910123 Ry
     Harris-Foulkes estimate   =     -77.19910377 Ry
     estimated scf accuracy    <       0.00000983 Ry

     iteration # 12     ecut=    80.00 Ry     beta= 0.40
     Davidson diagonalization with overlap
     ethr =  1.93E-08,  avg # of iterations =  3.0

     total cpu time spent up to now is      966.9 secs

     total energy              =     -77.19910281 Ry
     Harris-Foulkes estimate   =     -77.19910326 Ry
     estimated scf accuracy    <       0.00000182 Ry

     iteration # 13     ecut=    80.00 Ry     beta= 0.40
     Davidson diagonalization with overlap
     ethr =  3.57E-09,  avg # of iterations =  3.0

     total cpu time spent up to now is      972.6 secs

     End of self-consistent calculation

          k = 0.0000 0.0000 0.0000 (252395 PWs)   bands (ev):

   -10.0307  -9.1747  -9.1704  -9.1066  -8.9876  -8.9861  -8.4880  -7.5047
    -7.4382  -7.4354  -7.0304  -5.8332  -5.8017  -5.8008  -5.6936  -5.6877
    -4.9030  -4.9010  -4.4662  -4.0160  -3.3585  -3.1875  -3.1854  -3.1422
    -3.1397  -3.0845  -3.0376  -3.0373  -3.0236  -2.6939  -2.6411

     the Fermi energy is    -3.0595 ev

!    total energy              =     -77.19910292 Ry
     Harris-Foulkes estimate   =     -77.19910316 Ry
     estimated scf accuracy    <       0.00000034 Ry

     The total energy is the sum of the following terms:

     one-electron contribution =    -271.23810632 Ry
     hartree contribution      =     140.13788188 Ry
     xc contribution           =     -33.38060383 Ry
     ewald contribution        =      87.39668807 Ry
     smearing contrib. (-TS)   =      -0.11496271 Ry

     convergence has been achieved in  13 iterations

     Forces acting on atoms (cartesian axes, Ry/au):

     atom    1 type  1   force =     0.00025174    0.02108865    0.00000000
     atom    2 type  1   force =     0.02908122   -0.00061745    0.00000000
     atom    3 type  1   force =     0.00332044   -0.00139376    0.00000000
     atom    4 type  1   force =     0.01798370   -0.01002899    0.00000000
     atom    5 type  1   force =    -0.00068356   -0.00066031    0.00000000
     atom    6 type  1   force =    -0.01658247   -0.00947932    0.00000000
     atom    7 type  1   force =     0.01411169   -0.02537437    0.00000000
     atom    8 type  1   force =     0.00670463    0.00423034    0.00000000
     atom    9 type  1   force =     0.01434421    0.02517223    0.00000000
     atom   10 type  1   force =     0.00030634    0.00349905    0.00000000
     atom   11 type  1   force =    -0.01495667    0.02472853    0.00000000
     atom   12 type  1   force =    -0.00343389   -0.00180800    0.00000000
     atom   13 type  1   force =    -0.02936510   -0.00108239    0.00000000
     atom   14 type  1   force =     0.00083156   -0.00616925    0.00000000
     atom   15 type  1   force =    -0.01535295   -0.02504656    0.00000000
     atom   16 type  1   force =    -0.00517821    0.00427644    0.00000000
     atom   17 type  1   force =    -0.00138267   -0.00133484    0.00000000

     Total force =     0.080719     Total SCF correction =     0.000426


     Computing stress (Cartesian axis) and pressure

          total   stress  (Ry/bohr**3)                   (kbar)     P=   -2.52
  -0.00002648  -0.00000083   0.00000000         -3.90     -0.12      0.00
  -0.00000083  -0.00002497   0.00000000         -0.12     -3.67      0.00
   0.00000000   0.00000000  -0.00000001          0.00      0.00     -0.00


     number of scf cycles    =   8
     number of bfgs steps    =   7

     enthalpy old            =     -77.1908099791 Ry
     enthalpy new            =     -77.1991029172 Ry

     CASE: enthalpy_new < enthalpy_old

     new trust radius        =       0.3770971616 bohr
     new conv_thr            =       0.0000010000 Ry

     new unit-cell volume =  20292.14476 a.u.^3 (  3006.98558 Ang^3 )
     density =      0.28147 g/cm^3

CELL_PARAMETERS (alat= 25.26072511)
   0.985639368  -0.000038263   0.000000000
  -0.492852820   0.853687954   0.000000000
   0.000000000   0.000000000   1.496177267

ATOMIC_POSITIONS (angstrom)
Al       0.000270737   2.398323761   0.000000000
Al       2.219771763   1.347622958   0.000000000
Al       4.886661188   2.249837918   0.000000000
Al      -2.315369516   6.409369893   0.000000000
Al      -0.001001985   5.071006587   0.000000000
Al       2.316530403   6.409606836   0.000000000
Al       4.333475609   5.010779104   0.000000000
Al      -4.377261553  10.152240594   0.000000000
Al      -2.114548161   8.856287928   0.000000000
Al      -0.000211853  10.715192148   0.000000000
Al       2.113147544   8.855510872   0.000000000
Al       8.288606836   2.249375827   0.000000000
Al      10.955361379   1.346649411   0.000000000
Al       6.588558520   6.324614936   0.000000000
Al       8.840068259   5.011055258   0.000000000
Al       4.378651916  10.152001369   0.000000000
Al       6.585744717   8.873719647   0.000000000



[...]
    -4.8407  -4.7431  -4.6261  -4.3620  -4.1934  -4.1544  -3.4194  -3.4116
    -3.3407  -3.2479  -2.1194  -2.1016  -2.0942  -1.9540  -1.2654

     the Fermi energy is    -2.9709 ev

!    total energy              =     -78.05942608 Ry
     Harris-Foulkes estimate   =     -78.05942608 Ry
     estimated scf accuracy    <          4.3E-10 Ry

     The total energy is the sum of the following terms:

     one-electron contribution =    -366.23010016 Ry
     hartree contribution      =     188.17055553 Ry
     xc contribution           =     -34.77968022 Ry
     ewald contribution        =     134.76160401 Ry
     smearing contrib. (-TS)   =       0.01819476 Ry

     convergence has been achieved in   3 iterations

     Forces acting on atoms (cartesian axes, Ry/au):

     atom    1 type  1   force =     0.00000174    0.00000048    0.00000000
     atom    2 type  1   force =    -0.00000288   -0.00000302    0.00000000
     atom    3 type  1   force =    -0.00000062   -0.00000010    0.00000000
     atom    4 type  1   force =    -0.00000076    0.00000139    0.00000000
     atom    5 type  1   force =     0.00000123    0.00000215    0.00000000
     atom    6 type  1   force =    -0.00000016   -0.00000202    0.00000000
     atom    7 type  1   force =     0.00000014   -0.00000206    0.00000000
     atom    8 type  1   force =    -0.00000189    0.00000056    0.00000000
     atom    9 type  1   force =     0.00000242    0.00000402    0.00000000
     atom   10 type  1   force =     0.00000206    0.00000292    0.00000000
     atom   11 type  1   force =     0.00000049   -0.00000029    0.00000000
     atom   12 type  1   force =    -0.00000322    0.00000042    0.00000000
     atom   13 type  1   force =     0.00000381    0.00000041    0.00000000
     atom   14 type  1   force =    -0.00000260   -0.00000111    0.00000000
     atom   15 type  1   force =     0.00000129   -0.00000051    0.00000000
     atom   16 type  1   force =    -0.00000058   -0.00000182    0.00000000
     atom   17 type  1   force =    -0.00000048   -0.00000141    0.00000000

     Total force =     0.000011     Total SCF correction =     0.000021
     SCF correction compared to forces is large: reduce conv_thr to get better values


     Computing stress (Cartesian axis) and pressure

          total   stress  (Ry/bohr**3)                   (kbar)     P=   -0.00
  -0.00000000   0.00000000   0.00000000         -0.00      0.00      0.00
   0.00000000   0.00000000   0.00000000          0.00      0.00      0.00
   0.00000000   0.00000000  -0.00000001          0.00      0.00     -0.00


     bfgs converged in 224 scf cycles and 218 bfgs steps
     (criteria: energy <  1.0E-05 Ry, force <  1.0E-04Ry/Bohr, cell <  5.0E-05kbar)

     End of BFGS Geometry Optimization

     Final enthalpy =     -78.0594260768 Ry
Begin final coordinates
     new unit-cell volume =  15095.26962 a.u.^3 (  2236.88814 Ang^3 )
     density =      0.37837 g/cm^3

CELL_PARAMETERS (alat= 25.26072511)
   0.763031014  -0.206538736   0.000000000
  -0.563828086   0.972928451   0.000000000
   0.000000000   0.000000000   1.496177267

ATOMIC_POSITIONS (angstrom)
Al       0.031570393   2.640831321   0.000000000
Al       0.876934246   0.031690613   0.000000000
Al       2.737936729   2.197197710   0.000000000
Al      -2.810596416   6.545871277   0.000000000
Al      -0.549424216   5.398410208   0.000000000
Al       1.470584045   7.754183986   0.000000000
Al       1.924736974   4.735113762   0.000000000
Al      -4.829990525  11.204478703   0.000000000
Al      -3.685864564   8.943695517   0.000000000
Al      -1.816499830  10.955285874   0.000000000
Al      -1.003399179   8.417732866   0.000000000
Al       4.229726384   0.073625846   0.000000000
Al       7.580849438   0.115591503   0.000000000
Al       4.606992745   4.209459809   0.000000000
Al       5.751410396   1.949021612   0.000000000
Al       0.889593208  10.511983509   0.000000000
Al       3.732032357   6.607393045   0.000000000
End final coordinates



     Writing output data file 4al_planar_2x2_vcr.save/

     A final scf calculation at the relaxed structure.
     The G-vectors are recalculated for the final unit cell
     Results may differ from those at the preceding step.
 
     Parallelization info
     --------------------
     sticks:   dense  smooth     PW     G-vecs:    dense   smooth      PW
     Min        1269    1269    318               182383   182383   22802
     Max        1270    1270    319               182388   182388   22805
     Sum       10153   10153   2545              1459079  1459079  182431
 


     bravais-lattice index     =            4
     lattice parameter (alat)  =      25.2607  a.u.
     unit-cell volume          =   15095.2696 (a.u.)^3
     number of atoms/cell      =           17
     number of atomic types    =            1
     number of electrons       =        51.00
     number of Kohn-Sham states=           31
     kinetic-energy cutoff     =      80.0000  Ry
     charge density cutoff     =     320.0000  Ry
     convergence threshold     =      1.0E-08
     mixing beta               =       0.4000
     number of iterations used =            8  plain     mixing
     Exchange-correlation      = PBE ( 1  4  3  4 0 0)

     celldm(1)=  25.260725  celldm(2)=   0.000000  celldm(3)=   1.496177
     celldm(4)=   0.000000  celldm(5)=   0.000000  celldm(6)=   0.000000

     crystal axes: (cart. coord. in units of alat)
               a(1) = (   0.763031  -0.206539   0.000000 )  
               a(2) = (  -0.563828   0.972928   0.000000 )  
               a(3) = (   0.000000   0.000000   1.496177 )  

     reciprocal axes: (cart. coord. in units 2 pi/alat)
               b(1) = (  1.554392  0.900796  0.000000 )  
               b(2) = (  0.329975  1.219051  0.000000 )  
               b(3) = (  0.000000  0.000000  0.668370 )  


     PseudoPot. # 1 for Al read from file:
     ./Al.upf
     MD5 check sum: 4974d48a734c9d7d1eb6780a1419d19d
     Pseudo is Norm-conserving + core correction, Zval =  3.0
     Generated using ONCVPSP code by D. R. Hamann
     Using radial grid of 1876 points,  6 beta functions with: 
                l(1) =   0
                l(2) =   0
                l(3) =   1
                l(4) =   1
                l(5) =   2
                l(6) =   2

     atomic species   valence    mass     pseudopotential
        Al             3.00    29.98200     Al( 1.00)

      2 Sym. Ops. (no inversion) found



   Cartesian axes

     site n.     atom                  positions (alat units)
         1           Al  tau(   1) = (   0.0023617   0.1975576   0.0000000  )
         2           Al  tau(   2) = (   0.0656025   0.0023707   0.0000000  )
         3           Al  tau(   3) = (   0.2048219   0.1643699   0.0000000  )
         4           Al  tau(   4) = (  -0.2102575   0.4896892   0.0000000  )
         5           Al  tau(   5) = (  -0.0411018   0.4038489   0.0000000  )
         6           Al  tau(   6) = (   0.1100127   0.5800817   0.0000000  )
         7           Al  tau(   7) = (   0.1439874   0.3542285   0.0000000  )
         8           Al  tau(   8) = (  -0.3613261   0.8381943   0.0000000  )
         9           Al  tau(   9) = (  -0.2757353   0.6690677   0.0000000  )
        10           Al  tau(  10) = (  -0.1358903   0.8195525   0.0000000  )
        11           Al  tau(  11) = (  -0.0750632   0.6297210   0.0000000  )
        12           Al  tau(  12) = (   0.3164210   0.0055079   0.0000000  )
        13           Al  tau(  13) = (   0.5671147   0.0086473   0.0000000  )
        14           Al  tau(  14) = (   0.3446439   0.3149049   0.0000000  )
        15           Al  tau(  15) = (   0.4302565   0.1458041   0.0000000  )
        16           Al  tau(  16) = (   0.0665495   0.7863895   0.0000000  )
        17           Al  tau(  17) = (   0.2791891   0.4942916   0.0000000  )

     number of k points=     1  Methfessel-Paxton smearing, width (Ry)=  0.0500
                       cart. coord. in units 2pi/alat
        k(    1) = (   0.0000000   0.0000000   0.0000000), wk =   2.0000000

     Dense  grid:  1459079 G-vectors     FFT dimensions: ( 120, 162, 216)

     Estimated max dynamical RAM per process >     329.70 MB

     Estimated total dynamical RAM >       2.58 GB

     Initial potential from superposition of free atoms

     starting charge   50.95840, renormalised to   51.00000

     negative rho (up, down):  4.033E-05 0.000E+00
     Starting wfcs are   68 randomized atomic wfcs

     total cpu time spent up to now is    22218.4 secs

     Self-consistent Calculation

     iteration #  1     ecut=    80.00 Ry     beta= 0.40
     Davidson diagonalization with overlap
     c_bands:  1 eigenvalues not converged
     ethr =  1.00E-06,  avg # of iterations = 20.0

     negative rho (up, down):  6.168E-06 0.000E+00

     total cpu time spent up to now is    22238.9 secs

     total energy              =     -78.01856127 Ry
     Harris-Foulkes estimate   =     -78.23867632 Ry
     estimated scf accuracy    <       0.55629959 Ry

     iteration #  2     ecut=    80.00 Ry     beta= 0.40
     Davidson diagonalization with overlap
     ethr =  1.09E-03,  avg # of iterations =  2.0

     negative rho (up, down):  4.149E-06 0.000E+00

     total cpu time spent up to now is    22246.1 secs

     total energy              =     -77.97229300 Ry
     Harris-Foulkes estimate   =     -78.15275114 Ry
     estimated scf accuracy    <       0.59816690 Ry

     iteration #  3     ecut=    80.00 Ry     beta= 0.40
     Davidson diagonalization with overlap
     ethr =  1.09E-03,  avg # of iterations =  3.0

     negative rho (up, down):  8.704E-07 0.000E+00

     total cpu time spent up to now is    22252.7 secs

     total energy              =     -78.04312682 Ry
     Harris-Foulkes estimate   =     -78.08791409 Ry
     estimated scf accuracy    <       0.15676619 Ry

     iteration #  4     ecut=    80.00 Ry     beta= 0.40
     Davidson diagonalization with overlap
     ethr =  3.07E-04,  avg # of iterations =  2.0

     negative rho (up, down):  3.454E-07 0.000E+00

     total cpu time spent up to now is    22258.9 secs

     total energy              =     -78.05422050 Ry
     Harris-Foulkes estimate   =     -78.05734655 Ry
     estimated scf accuracy    <       0.01276859 Ry

     iteration #  5     ecut=    80.00 Ry     beta= 0.40
     Davidson diagonalization with overlap
     ethr =  2.50E-05,  avg # of iterations =  4.0

     negative rho (up, down):  2.200E-07 0.000E+00

     total cpu time spent up to now is    22267.0 secs

     total energy              =     -78.05903556 Ry
     Harris-Foulkes estimate   =     -78.06008352 Ry
     estimated scf accuracy    <       0.00587222 Ry

     iteration #  6     ecut=    80.00 Ry     beta= 0.40
     Davidson diagonalization with overlap
     ethr =  1.15E-05,  avg # of iterations =  1.0

     negative rho (up, down):  9.570E-08 0.000E+00

     total cpu time spent up to now is    22273.5 secs

     total energy              =     -78.05885890 Ry
     Harris-Foulkes estimate   =     -78.05957782 Ry
     estimated scf accuracy    <       0.00199493 Ry

     iteration #  7     ecut=    80.00 Ry     beta= 0.40
     Davidson diagonalization with overlap
     ethr =  3.91E-06,  avg # of iterations =  3.0

     negative rho (up, down):  1.297E-08 0.000E+00

     total cpu time spent up to now is    22281.0 secs

     total energy              =     -78.05930203 Ry
     Harris-Foulkes estimate   =     -78.05938291 Ry
     estimated scf accuracy    <       0.00058149 Ry

     iteration #  8     ecut=    80.00 Ry     beta= 0.40
     Davidson diagonalization with overlap
     ethr =  1.14E-06,  avg # of iterations =  1.0

     total cpu time spent up to now is    22287.1 secs

     total energy              =     -78.05929493 Ry
     Harris-Foulkes estimate   =     -78.05933515 Ry
     estimated scf accuracy    <       0.00021534 Ry

     iteration #  9     ecut=    80.00 Ry     beta= 0.40
     Davidson diagonalization with overlap
     ethr =  4.22E-07,  avg # of iterations =  3.0

     total cpu time spent up to now is    22293.9 secs

     total energy              =     -78.05931022 Ry
     Harris-Foulkes estimate   =     -78.05931522 Ry
     estimated scf accuracy    <       0.00002240 Ry

     iteration # 10     ecut=    80.00 Ry     beta= 0.40
     Davidson diagonalization with overlap
     ethr =  4.39E-08,  avg # of iterations =  3.0

     total cpu time spent up to now is    22302.1 secs

     total energy              =     -78.05931532 Ry
     Harris-Foulkes estimate   =     -78.05931631 Ry
     estimated scf accuracy    <       0.00000252 Ry

     iteration # 11     ecut=    80.00 Ry     beta= 0.40
     Davidson diagonalization with overlap
     ethr =  4.94E-09,  avg # of iterations =  3.0

     total cpu time spent up to now is    22310.1 secs

     total energy              =     -78.05931576 Ry
     Harris-Foulkes estimate   =     -78.05931630 Ry
     estimated scf accuracy    <       0.00000121 Ry

     iteration # 12     ecut=    80.00 Ry     beta= 0.40
     Davidson diagonalization with overlap
     ethr =  2.37E-09,  avg # of iterations =  3.0

     total cpu time spent up to now is    22317.0 secs

     total energy              =     -78.05931601 Ry
     Harris-Foulkes estimate   =     -78.05931624 Ry
     estimated scf accuracy    <       0.00000110 Ry

     iteration # 13     ecut=    80.00 Ry     beta= 0.40
     Davidson diagonalization with overlap
     ethr =  2.16E-09,  avg # of iterations =  1.0

     total cpu time spent up to now is    22322.6 secs

     total energy              =     -78.05931600 Ry
     Harris-Foulkes estimate   =     -78.05931607 Ry
     estimated scf accuracy    <       0.00000026 Ry

     iteration # 14     ecut=    80.00 Ry     beta= 0.40
     Davidson diagonalization with overlap
     ethr =  5.01E-10,  avg # of iterations =  3.0

     total cpu time spent up to now is    22329.9 secs

     total energy              =     -78.05931605 Ry
     Harris-Foulkes estimate   =     -78.05931606 Ry
     estimated scf accuracy    <       0.00000005 Ry

     iteration # 15     ecut=    80.00 Ry     beta= 0.40
     Davidson diagonalization with overlap
     ethr =  9.47E-11,  avg # of iterations =  3.0

     total cpu time spent up to now is    22336.3 secs

     total energy              =     -78.05931604 Ry
     Harris-Foulkes estimate   =     -78.05931605 Ry
     estimated scf accuracy    <       0.00000003 Ry

     iteration # 16     ecut=    80.00 Ry     beta= 0.40
     Davidson diagonalization with overlap
     ethr =  5.74E-11,  avg # of iterations =  2.0

     total cpu time spent up to now is    22341.9 secs

     End of self-consistent calculation

          k = 0.0000 0.0000 0.0000 (182431 PWs)   bands (ev):

   -11.2073  -9.9747  -9.9326  -9.8261  -9.7395  -8.5718  -8.5419  -8.5032
    -8.3700  -6.2255  -6.1818  -6.0106  -5.8829  -5.2044  -5.0576  -4.9612
    -4.8407  -4.7430  -4.6261  -4.3620  -4.1934  -4.1544  -3.4194  -3.4117
    -3.3407  -3.2479  -2.1194  -2.1016  -2.0942  -1.9540  -1.2651

     the Fermi energy is    -2.9709 ev

!    total energy              =     -78.05931603 Ry
     Harris-Foulkes estimate   =     -78.05931604 Ry
     estimated scf accuracy    <          1.4E-09 Ry

     The total energy is the sum of the following terms:

     one-electron contribution =    -366.22991559 Ry
     hartree contribution      =     188.17051394 Ry
     xc contribution           =     -34.77971294 Ry
     ewald contribution        =     134.76160401 Ry
     smearing contrib. (-TS)   =       0.01819454 Ry

     convergence has been achieved in  16 iterations

     Forces acting on atoms (cartesian axes, Ry/au):

     atom    1 type  1   force =     0.00000424   -0.00000258    0.00000000
     atom    2 type  1   force =    -0.00000017   -0.00000655    0.00000000
     atom    3 type  1   force =    -0.00000542    0.00000722    0.00000000
     atom    4 type  1   force =     0.00000405    0.00000410    0.00000000
     atom    5 type  1   force =    -0.00000422    0.00000574    0.00000000
     atom    6 type  1   force =     0.00000269   -0.00000267    0.00000000
     atom    7 type  1   force =     0.00000107   -0.00001031    0.00000000
     atom    8 type  1   force =    -0.00001116   -0.00000004    0.00000000
     atom    9 type  1   force =     0.00000796    0.00000148    0.00000000
     atom   10 type  1   force =     0.00000080    0.00000010    0.00000000
     atom   11 type  1   force =    -0.00000588    0.00000557    0.00000000
     atom   12 type  1   force =     0.00000338    0.00000132    0.00000000
     atom   13 type  1   force =     0.00000735   -0.00000370    0.00000000
     atom   14 type  1   force =    -0.00000341   -0.00000058    0.00000000
     atom   15 type  1   force =    -0.00000115   -0.00000135    0.00000000
     atom   16 type  1   force =    -0.00000289    0.00000263    0.00000000
     atom   17 type  1   force =     0.00000275   -0.00000037    0.00000000

     Total force =     0.000027     Total SCF correction =     0.000030
     SCF correction compared to forces is large: reduce conv_thr to get better values


     Computing stress (Cartesian axis) and pressure

          total   stress  (Ry/bohr**3)                   (kbar)     P=    0.00
   0.00000002   0.00000000   0.00000000          0.00      0.00      0.00
   0.00000000   0.00000002   0.00000000          0.00      0.00      0.00
   0.00000000   0.00000000  -0.00000001          0.00      0.00     -0.00


     Writing output data file 4al_planar_2x2_vcr.save/
 
     init_run     :     22.90s CPU     27.40s WALL (       2 calls)
     electrons    :  12460.32s CPU  12823.40s WALL (     225 calls)
     update_pot   :   3237.33s CPU   3262.88s WALL (     223 calls)
     forces       :   1972.89s CPU   2004.65s WALL (     225 calls)
     stress       :   4078.98s CPU   4163.76s WALL (     225 calls)

     Called by init_run:
     wfcinit      :      7.06s CPU     10.79s WALL (       2 calls)
     potinit      :      5.71s CPU      5.95s WALL (       2 calls)
     hinit0       :      8.67s CPU      9.11s WALL (       2 calls)

     Called by electrons:
     c_bands      :   9812.60s CPU   9975.19s WALL (    1821 calls)
     sum_band     :   1375.64s CPU   1395.51s WALL (    1821 calls)
     v_of_rho     :   1148.63s CPU   1270.63s WALL (    1968 calls)
     mix_rho      :    186.96s CPU    233.80s WALL (    1821 calls)

     Called by c_bands:
     init_us_2    :    162.04s CPU    163.87s WALL (    3644 calls)
     cegterg      :   8064.53s CPU   8217.76s WALL (    1821 calls)

     Called by sum_band:

     Called by *egterg:
     h_psi        :   7105.93s CPU   7224.43s WALL (    8076 calls)
     g_psi        :     38.99s CPU     39.36s WALL (    6253 calls)
     cdiaghg      :     20.67s CPU     20.99s WALL (    7773 calls)

     Called by h_psi:
     h_psi:pot    :   7092.61s CPU   7188.67s WALL (    8076 calls)
     h_psi:calbec :    925.90s CPU    931.32s WALL (    8076 calls)
     vloc_psi     :   5322.80s CPU   5409.62s WALL (    8076 calls)
     add_vuspsi   :    843.80s CPU    847.67s WALL (    8076 calls)

     General routines
     calbec       :   1122.80s CPU   1129.68s WALL (    9201 calls)
     fft          :   1377.04s CPU   1482.85s WALL (   25606 calls)
     ffts         :     60.22s CPU     61.03s WALL (    1821 calls)
     fftw         :   5683.92s CPU   5777.18s WALL (  378821 calls)
 
     Parallel routines
     fft_scatt_xy :    909.77s CPU    924.91s WALL (  406248 calls)
     fft_scatt_yz :   3396.90s CPU   3476.90s WALL (  406248 calls)
 
     PWSCF        :     6h 3m CPU        3h 6m WALL

      12h
 
   This run was terminated on:  19:13:54  25Nov2020            

=------------------------------------------------------------------------------=
   JOB DONE.
=------------------------------------------------------------------------------=
