
     Program PWSCF v.6.3MaX starts on 25Nov2020 at 22: 8: 3 

     This program is part of the open-source Quantum ESPRESSO suite
     for quantum simulation of materials; please cite
         "P. Giannozzi et al., J. Phys.:Condens. Matter 21 395502 (2009);
         "P. Giannozzi et al., J. Phys.:Condens. Matter 29 465901 (2017);
          URL http://www.quantum-espresso.org", 
     in publications or presentations arising from this work. More details at
     http://www.quantum-espresso.org/quote

     Parallel version (MPI), running on     8 processors

     MPI processes distributed on     3 nodes
     R & G space division:  proc/nbgrp/npool/nimage =       8
     Waiting for input...
     Reading input from standard input

     Current dimensions of program PWSCF are:
     Max number of different atomic species (ntypx) = 10
     Max number of k-points (npk) =  40000
     Max angular momentum in pseudopotentials (lmaxx) =  3

     Subspace diagonalization in iterative solution of the eigenvalue problem:
     a serial algorithm will be used

 
     Parallelization info
     --------------------
     sticks:   dense  smooth     PW     G-vecs:    dense   smooth      PW
     Min        3123    3123    778               448599   448599   56048
     Max        3124    3124    779               448604   448604   56052
     Sum       24985   24985   6229              3588803  3588803  448403
 


     bravais-lattice index     =            4
     lattice parameter (alat)  =      33.6810  a.u.
     unit-cell volume          =   37130.3117 (a.u.)^3
     number of atoms/cell      =           31
     number of atomic types    =            1
     number of electrons       =        93.00
     number of Kohn-Sham states=           56
     kinetic-energy cutoff     =      80.0000  Ry
     charge density cutoff     =     320.0000  Ry
     convergence threshold     =      1.0E-06
     mixing beta               =       0.4000
     number of iterations used =            8  plain     mixing
     Exchange-correlation      = PBE ( 1  4  3  4 0 0)
     nstep                     =          300


     celldm(1)=  33.680967  celldm(2)=   0.000000  celldm(3)=   1.122133
     celldm(4)=   0.000000  celldm(5)=   0.000000  celldm(6)=   0.000000

     crystal axes: (cart. coord. in units of alat)
               a(1) = (   1.000000   0.000000   0.000000 )  
               a(2) = (  -0.500000   0.866025   0.000000 )  
               a(3) = (   0.000000   0.000000   1.122133 )  

     reciprocal axes: (cart. coord. in units 2 pi/alat)
               b(1) = (  1.000000  0.577350  0.000000 )  
               b(2) = (  0.000000  1.154701  0.000000 )  
               b(3) = (  0.000000  0.000000  0.891160 )  


     PseudoPot. # 1 for Al read from file:
     ./Al.upf
     MD5 check sum: 4974d48a734c9d7d1eb6780a1419d19d
     Pseudo is Norm-conserving + core correction, Zval =  3.0
     Generated using ONCVPSP code by D. R. Hamann
     Using radial grid of 1876 points,  6 beta functions with: 
                l(1) =   0
                l(2) =   0
                l(3) =   1
                l(4) =   1
                l(5) =   2
                l(6) =   2

     atomic species   valence    mass     pseudopotential
        Al             3.00    29.98200     Al( 1.00)

      2 Sym. Ops. (no inversion) found



   Cartesian axes

     site n.     atom                  positions (alat units)
         1           Al  tau(   1) = (  -0.0000000   0.1443393   0.0000000  )
         2           Al  tau(   2) = (   0.1250015   0.0721696   0.0000000  )
         3           Al  tau(   3) = (  -0.1249997   0.3608472   0.0000000  )
         4           Al  tau(   4) = (   0.0000018   0.2886775   0.0000000  )
         5           Al  tau(   5) = (  -0.2499994   0.5773550   0.0000000  )
         6           Al  tau(   6) = (  -0.1249979   0.5051854   0.0000000  )
         7           Al  tau(   7) = (  -0.3749991   0.7938629   0.0000000  )
         8           Al  tau(   8) = (  -0.2499976   0.7216932   0.0000000  )
         9           Al  tau(   9) = (   0.2500011   0.1443403   0.0000000  )
        10           Al  tau(  10) = (   0.1250014   0.3608482   0.0000000  )
        11           Al  tau(  11) = (   0.2500030   0.2886785   0.0000000  )
        12           Al  tau(  12) = (   0.0000017   0.5773560   0.0000000  )
        13           Al  tau(  13) = (   0.1250033   0.5051864   0.0000000  )
        14           Al  tau(  14) = (  -0.1249980   0.7938639   0.0000000  )
        15           Al  tau(  15) = (   0.0000036   0.7216942   0.0000000  )
        16           Al  tau(  16) = (   0.5000023   0.1443413   0.0000000  )
        17           Al  tau(  17) = (   0.6250038   0.0721717   0.0000000  )
        18           Al  tau(  18) = (   0.3750026   0.3608492   0.0000000  )
        19           Al  tau(  19) = (   0.5000041   0.2886795   0.0000000  )
        20           Al  tau(  20) = (   0.2500029   0.5773571   0.0000000  )
        21           Al  tau(  21) = (   0.3750044   0.5051874   0.0000000  )
        22           Al  tau(  22) = (   0.1250032   0.7938649   0.0000000  )
        23           Al  tau(  23) = (   0.2500047   0.7216953   0.0000000  )
        24           Al  tau(  24) = (   0.7500035   0.1443423   0.0000000  )
        25           Al  tau(  25) = (   0.8750050   0.0721727   0.0000000  )
        26           Al  tau(  26) = (   0.6250038   0.3608502   0.0000000  )
        27           Al  tau(  27) = (   0.7500053   0.2886805   0.0000000  )
        28           Al  tau(  28) = (   0.5000041   0.5773581   0.0000000  )
        29           Al  tau(  29) = (   0.6250056   0.5051884   0.0000000  )
        30           Al  tau(  30) = (   0.3750044   0.7938660   0.0000000  )
        31           Al  tau(  31) = (   0.5000059   0.7216963   0.0000000  )

     number of k points=     1  Methfessel-Paxton smearing, width (Ry)=  0.0500
                       cart. coord. in units 2pi/alat
        k(    1) = (   0.0000000   0.0000000   0.0000000), wk =   2.0000000

     Dense  grid:  3588803 G-vectors     FFT dimensions: ( 192, 192, 216)

     Estimated max dynamical RAM per process >       1.15 GB

     Estimated total dynamical RAM >       9.23 GB

     Initial potential from superposition of free atoms

     starting charge   92.92414, renormalised to   93.00000

     negative rho (up, down):  9.278E-05 0.000E+00
     Starting wfcs are  124 randomized atomic wfcs

     total cpu time spent up to now is       27.9 secs

     Self-consistent Calculation

     iteration #  1     ecut=    80.00 Ry     beta= 0.40
     Davidson diagonalization with overlap
     ethr =  1.00E-02,  avg # of iterations =  2.0

     total cpu time spent up to now is       54.6 secs

     total energy              =    -140.64231520 Ry
     Harris-Foulkes estimate   =    -141.23601674 Ry
     estimated scf accuracy    <       1.54835569 Ry

     iteration #  2     ecut=    80.00 Ry     beta= 0.40
     Davidson diagonalization with overlap
     ethr =  1.66E-03,  avg # of iterations =  5.0

     total cpu time spent up to now is       82.2 secs

     total energy              =    -140.21885490 Ry
     Harris-Foulkes estimate   =    -141.45841836 Ry
     estimated scf accuracy    <       6.75424990 Ry

     iteration #  3     ecut=    80.00 Ry     beta= 0.40
     Davidson diagonalization with overlap
     ethr =  1.66E-03,  avg # of iterations =  5.0

     total cpu time spent up to now is      107.5 secs

     total energy              =    -140.82776190 Ry
     Harris-Foulkes estimate   =    -141.02301373 Ry
     estimated scf accuracy    <       1.17363200 Ry

     iteration #  4     ecut=    80.00 Ry     beta= 0.40
     Davidson diagonalization with overlap
     ethr =  1.26E-03,  avg # of iterations =  1.0

     total cpu time spent up to now is      127.0 secs

     total energy              =    -140.90098430 Ry
     Harris-Foulkes estimate   =    -140.94379346 Ry
     estimated scf accuracy    <       0.14679025 Ry

     iteration #  5     ecut=    80.00 Ry     beta= 0.40
     Davidson diagonalization with overlap
     ethr =  1.58E-04,  avg # of iterations =  5.0

     total cpu time spent up to now is      149.3 secs

     total energy              =    -140.91336320 Ry
     Harris-Foulkes estimate   =    -140.95578736 Ry
     estimated scf accuracy    <       0.30635193 Ry

     iteration #  6     ecut=    80.00 Ry     beta= 0.40
     Davidson diagonalization with overlap
     ethr =  1.58E-04,  avg # of iterations =  3.0

     total cpu time spent up to now is      170.9 secs

     total energy              =    -140.93243166 Ry
     Harris-Foulkes estimate   =    -140.93474425 Ry
     estimated scf accuracy    <       0.01009686 Ry

     iteration #  7     ecut=    80.00 Ry     beta= 0.40
     Davidson diagonalization with overlap
     ethr =  1.09E-05,  avg # of iterations = 11.0

     total cpu time spent up to now is      206.4 secs

     total energy              =    -140.93551750 Ry
     Harris-Foulkes estimate   =    -140.93681375 Ry
     estimated scf accuracy    <       0.00652015 Ry

     iteration #  8     ecut=    80.00 Ry     beta= 0.40
     Davidson diagonalization with overlap
     ethr =  7.01E-06,  avg # of iterations =  3.0

     total cpu time spent up to now is      228.5 secs

     total energy              =    -140.93551204 Ry
     Harris-Foulkes estimate   =    -140.93684344 Ry
     estimated scf accuracy    <       0.00827755 Ry

     iteration #  9     ecut=    80.00 Ry     beta= 0.40
     Davidson diagonalization with overlap
     ethr =  7.01E-06,  avg # of iterations =  1.0

     total cpu time spent up to now is      248.2 secs

     total energy              =    -140.93588075 Ry
     Harris-Foulkes estimate   =    -140.93621166 Ry
     estimated scf accuracy    <       0.00192589 Ry

     iteration # 10     ecut=    80.00 Ry     beta= 0.40
     Davidson diagonalization with overlap
     ethr =  2.07E-06,  avg # of iterations =  4.0

     total cpu time spent up to now is      270.4 secs

     total energy              =    -140.93601696 Ry
     Harris-Foulkes estimate   =    -140.93610102 Ry
     estimated scf accuracy    <       0.00040297 Ry

     iteration # 11     ecut=    80.00 Ry     beta= 0.40
     Davidson diagonalization with overlap
     ethr =  4.33E-07,  avg # of iterations =  5.0

     total cpu time spent up to now is      296.2 secs

     total energy              =    -140.93608513 Ry
     Harris-Foulkes estimate   =    -140.93613509 Ry
     estimated scf accuracy    <       0.00030066 Ry

     iteration # 12     ecut=    80.00 Ry     beta= 0.40
     Davidson diagonalization with overlap
     ethr =  3.23E-07,  avg # of iterations =  3.0

     total cpu time spent up to now is      317.4 secs

     total energy              =    -140.93610425 Ry
     Harris-Foulkes estimate   =    -140.93611957 Ry
     estimated scf accuracy    <       0.00009143 Ry

     iteration # 13     ecut=    80.00 Ry     beta= 0.40
     Davidson diagonalization with overlap
     ethr =  9.83E-08,  avg # of iterations =  4.0

     total cpu time spent up to now is      339.1 secs

     total energy              =    -140.93611289 Ry
     Harris-Foulkes estimate   =    -140.93611593 Ry
     estimated scf accuracy    <       0.00001415 Ry

     iteration # 14     ecut=    80.00 Ry     beta= 0.40
     Davidson diagonalization with overlap
     ethr =  1.52E-08,  avg # of iterations =  5.0

     total cpu time spent up to now is      366.4 secs

     total energy              =    -140.93611406 Ry
     Harris-Foulkes estimate   =    -140.93611784 Ry
     estimated scf accuracy    <       0.00001972 Ry

     iteration # 15     ecut=    80.00 Ry     beta= 0.40
     Davidson diagonalization with overlap
     ethr =  1.52E-08,  avg # of iterations =  4.0

     total cpu time spent up to now is      388.7 secs

     total energy              =    -140.93611496 Ry
     Harris-Foulkes estimate   =    -140.93611711 Ry
     estimated scf accuracy    <       0.00001472 Ry

     iteration # 16     ecut=    80.00 Ry     beta= 0.40
     Davidson diagonalization with overlap
     ethr =  1.52E-08,  avg # of iterations =  1.0

     total cpu time spent up to now is      407.6 secs

     total energy              =    -140.93611553 Ry
     Harris-Foulkes estimate   =    -140.93611596 Ry
     estimated scf accuracy    <       0.00000198 Ry

     iteration # 17     ecut=    80.00 Ry     beta= 0.40
     Davidson diagonalization with overlap
     ethr =  2.13E-09,  avg # of iterations =  5.0

     total cpu time spent up to now is      432.2 secs

     total energy              =    -140.93611555 Ry
     Harris-Foulkes estimate   =    -140.93611593 Ry
     estimated scf accuracy    <       0.00000204 Ry

     iteration # 18     ecut=    80.00 Ry     beta= 0.40
     Davidson diagonalization with overlap
     ethr =  2.13E-09,  avg # of iterations =  3.0

     total cpu time spent up to now is      453.2 secs

     total energy              =    -140.93611545 Ry
     Harris-Foulkes estimate   =    -140.93611568 Ry
     estimated scf accuracy    <       0.00000164 Ry

     iteration # 19     ecut=    80.00 Ry     beta= 0.40
     Davidson diagonalization with overlap
     ethr =  1.76E-09,  avg # of iterations =  1.0

     total cpu time spent up to now is      471.3 secs

     End of self-consistent calculation

          k = 0.0000 0.0000 0.0000 (448403 PWs)   bands (ev):

    -9.9529  -9.4483  -9.4329  -9.4328  -9.4259  -9.4258  -9.1458  -8.4048
    -8.4047  -8.3881  -8.3880  -8.3797  -8.3034  -8.2569  -8.2568  -7.5863
    -6.9324  -6.9324  -6.8233  -6.4865  -6.4772  -6.4772  -6.3700  -6.3699
    -5.4639  -4.8435  -4.8432  -4.8369  -4.7357  -4.7354  -4.4779  -4.4680
    -4.4429  -4.4428  -4.1225  -4.1223  -3.9778  -3.4712  -3.4687  -3.4686
    -3.4577  -3.4575  -3.4017  -3.2744  -3.2743  -3.2223  -3.2073  -2.9743
    -2.9652  -2.9651  -2.9389  -2.5197  -2.5196  -2.4496  -2.4483  -2.4313

     the Fermi energy is    -3.0910 ev

!    total energy              =    -140.93611517 Ry
     Harris-Foulkes estimate   =    -140.93611551 Ry
     estimated scf accuracy    <       0.00000036 Ry

     The total energy is the sum of the following terms:

     one-electron contribution =    -502.03578512 Ry
     hartree contribution      =     259.76291244 Ry
     xc contribution           =     -61.33568501 Ry
     ewald contribution        =     162.75343587 Ry
     smearing contrib. (-TS)   =      -0.08099335 Ry

     convergence has been achieved in  19 iterations

     Forces acting on atoms (cartesian axes, Ry/au):

     atom    1 type  1   force =     0.00369760   -0.00394527    0.00000000
     atom    2 type  1   force =    -0.00253282   -0.00219683    0.00000000
     atom    3 type  1   force =     0.00002230    0.00001233    0.00000000
     atom    4 type  1   force =    -0.00185302    0.00108409    0.00000000
     atom    5 type  1   force =    -0.00155893    0.00523072    0.00000000
     atom    6 type  1   force =     0.00000078   -0.00216130    0.00000000
     atom    7 type  1   force =     0.00114400    0.00065556    0.00000000
     atom    8 type  1   force =    -0.00315376   -0.00112393    0.00000000
     atom    9 type  1   force =     0.01311567   -0.00761713    0.00000000
     atom   10 type  1   force =     0.00525526   -0.00124128    0.00000000
     atom   11 type  1   force =     0.00061212    0.00332415    0.00000000
     atom   12 type  1   force =     0.00156499    0.00521235    0.00000000
     atom   13 type  1   force =    -0.00202100   -0.00116340    0.00000000
     atom   14 type  1   force =     0.00000855    0.01511658    0.00000000
     atom   15 type  1   force =     0.00312848   -0.00111610    0.00000000
     atom   16 type  1   force =    -0.01309253   -0.00762003    0.00000000
     atom   17 type  1   force =     0.00251945   -0.00218605    0.00000000
     atom   18 type  1   force =     0.00001099   -0.00125404    0.00000000
     atom   19 type  1   force =    -0.00061446    0.00333679    0.00000000
     atom   20 type  1   force =    -0.00046280   -0.00022384    0.00000000
     atom   21 type  1   force =     0.00001826    0.00125925    0.00000000
     atom   22 type  1   force =    -0.00114078    0.00066171    0.00000000
     atom   23 type  1   force =     0.00113985   -0.00068863    0.00000000
     atom   24 type  1   force =    -0.00368693   -0.00395656    0.00000000
     atom   25 type  1   force =    -0.00001327    0.00237007    0.00000000
     atom   26 type  1   force =    -0.00527093   -0.00125410    0.00000000
     atom   27 type  1   force =     0.00183895    0.00107419    0.00000000
     atom   28 type  1   force =     0.00047146   -0.00023022    0.00000000
     atom   29 type  1   force =     0.00198512   -0.00115065    0.00000000
     atom   30 type  1   force =    -0.00000485    0.00049478    0.00000000
     atom   31 type  1   force =    -0.00112776   -0.00070322    0.00000000

     Total force =     0.031194     Total SCF correction =     0.000489


     Computing stress (Cartesian axis) and pressure

          total   stress  (Ry/bohr**3)                   (kbar)     P=   -0.57
  -0.00000577   0.00000000   0.00000000         -0.85      0.00      0.00
   0.00000000  -0.00000581   0.00000000          0.00     -0.85      0.00
   0.00000000   0.00000000   0.00000000          0.00      0.00      0.00


     BFGS Geometry Optimization

     number of scf cycles    =   1
     number of bfgs steps    =   0

     enthalpy new            =    -140.9361151682 Ry

     new trust radius        =       0.0151671169 bohr
     new conv_thr            =       0.0000010000 Ry

     new unit-cell volume =  37119.56399 a.u.^3 (  5500.55181 Ang^3 )
     density =      0.28059 g/cm^3

CELL_PARAMETERS (alat= 33.68096681)
   0.999855713   0.000000033   0.000000000
  -0.499927828   0.865899646   0.000000000
   0.000000000   0.000000000   1.122132950

ATOMIC_POSITIONS (angstrom)
Al       0.001955904   2.570126904   0.000000000
Al       2.226265205   1.284944395   0.000000000
Al      -2.227561756   6.430523616   0.000000000
Al      -0.000948168   5.144983079   0.000000000
Al      -4.455971445  10.291587415   0.000000000
Al      -2.227540378   9.001568690   0.000000000
Al      -6.682114382  14.147469447   0.000000000
Al      -4.456782505  12.860420310   0.000000000
Al       4.462116892   2.568202463   0.000000000
Al       2.230384887   6.429878674   0.000000000
Al       4.455534020   5.146186637   0.000000000
Al       0.000859306  10.291596041   0.000000000
Al       2.226567775   9.002115019   0.000000000
Al      -2.227537268  14.155139120   0.000000000
Al       0.001719311  12.860442797   0.000000000
Al       8.903427992   2.568219269   0.000000000
Al      11.139294129   1.284986787   0.000000000
Al       6.682788018   6.429890264   0.000000000
Al       8.910062913   5.146211671   0.000000000
Al       4.454964279  10.288738093   0.000000000
Al       6.682824631   9.003415190   0.000000000
Al       2.227032501  14.147509384   0.000000000
Al       4.455845007  12.860687314   0.000000000
Al      13.363582385   2.570175956   0.000000000
Al      15.593131942   1.287415771   0.000000000
Al      11.135171231   6.429908578   0.000000000
Al      13.366538899   5.145032869   0.000000000
Al       8.910636475  10.288753058   0.000000000
Al      11.139043181   9.002158451   0.000000000
Al       6.682811406  14.147439403   0.000000000
Al       8.909823092  12.860697937   0.000000000



     Writing output data file 10al_planar_2x2_vcr.save/
     NEW-OLD atomic charge density approx. for the potential

     negative rho (up, down):  2.992E-07 0.000E+00
     extrapolated charge   92.97309, renormalised to   93.00000

     total cpu time spent up to now is      544.6 secs

     Self-consistent Calculation

     iteration #  1     ecut=    80.00 Ry     beta= 0.40
     Davidson diagonalization with overlap
     ethr =  1.00E-06,  avg # of iterations =  4.0

     Threshold (ethr) on eigenvalues was too large:
     Diagonalizing with lowered threshold

     Davidson diagonalization with overlap
     ethr =  8.26E-08,  avg # of iterations =  4.0

     negative rho (up, down):  1.480E-07 0.000E+00

     total cpu time spent up to now is      593.9 secs

     total energy              =    -140.93706386 Ry
     Harris-Foulkes estimate   =    -141.07027573 Ry
     estimated scf accuracy    <       0.00010522 Ry

     iteration #  2     ecut=    80.00 Ry     beta= 0.40
     Davidson diagonalization with overlap
     ethr =  1.13E-07,  avg # of iterations =  6.0

     negative rho (up, down):  1.337E-07 0.000E+00

     total cpu time spent up to now is      621.8 secs

     total energy              =    -140.93700670 Ry
     Harris-Foulkes estimate   =    -140.93723407 Ry
     estimated scf accuracy    <       0.00181024 Ry

     iteration #  3     ecut=    80.00 Ry     beta= 0.40
     Davidson diagonalization with overlap
     ethr =  1.13E-07,  avg # of iterations =  4.0

     negative rho (up, down):  9.007E-08 0.000E+00

     total cpu time spent up to now is      647.4 secs

     total energy              =    -140.93711437 Ry
     Harris-Foulkes estimate   =    -140.93711964 Ry
     estimated scf accuracy    <       0.00001933 Ry

     iteration #  4     ecut=    80.00 Ry     beta= 0.40
     Davidson diagonalization with overlap
     ethr =  2.08E-08,  avg # of iterations =  4.0

     negative rho (up, down):  6.400E-08 0.000E+00

     total cpu time spent up to now is      670.4 secs

     total energy              =    -140.93711528 Ry
     Harris-Foulkes estimate   =    -140.93711859 Ry
     estimated scf accuracy    <       0.00001411 Ry

     iteration #  5     ecut=    80.00 Ry     beta= 0.40
     Davidson diagonalization with overlap
     ethr =  1.52E-08,  avg # of iterations =  3.0

     negative rho (up, down):  3.770E-08 0.000E+00

     total cpu time spent up to now is      692.9 secs

     total energy              =    -140.93711605 Ry
     Harris-Foulkes estimate   =    -140.93711878 Ry
     estimated scf accuracy    <       0.00001771 Ry

     iteration #  6     ecut=    80.00 Ry     beta= 0.40
     Davidson diagonalization with overlap
     ethr =  1.52E-08,  avg # of iterations =  1.0

     total cpu time spent up to now is      712.4 secs

     End of self-consistent calculation

          k = 0.0000 0.0000 0.0000 (448403 PWs)   bands (ev):

    -9.9528  -9.4483  -9.4330  -9.4327  -9.4250  -9.4248  -9.1434  -8.4036
    -8.4035  -8.3841  -8.3840  -8.3822  -8.3046  -8.2540  -8.2539  -7.5846
    -6.9318  -6.9318  -6.8225  -6.4817  -6.4771  -6.4771  -6.3717  -6.3717
    -5.4689  -4.8392  -4.8390  -4.8346  -4.7360  -4.7358  -4.4762  -4.4668
    -4.4427  -4.4426  -4.1247  -4.1245  -3.9776  -3.4709  -3.4673  -3.4671
    -3.4580  -3.4578  -3.3994  -3.2727  -3.2726  -3.2208  -3.2170  -2.9697
    -2.9630  -2.9629  -2.9406  -2.5166  -2.5165  -2.4459  -2.4449  -2.4332

     the Fermi energy is    -3.0903 ev

!    total energy              =    -140.93711719 Ry
     Harris-Foulkes estimate   =    -140.93711747 Ry
     estimated scf accuracy    <       0.00000094 Ry

     The total energy is the sum of the following terms:

     one-electron contribution =    -502.12229527 Ry
     hartree contribution      =     259.80404906 Ry
     xc contribution           =     -61.33330786 Ry
     ewald contribution        =     162.79507950 Ry
     smearing contrib. (-TS)   =      -0.08064263 Ry

     convergence has been achieved in   6 iterations

     Forces acting on atoms (cartesian axes, Ry/au):

     atom    1 type  1   force =     0.00325162   -0.00321177    0.00000000
     atom    2 type  1   force =    -0.00138203   -0.00162461    0.00000000
     atom    3 type  1   force =     0.00001118    0.00001699    0.00000000
     atom    4 type  1   force =    -0.00136546    0.00079235    0.00000000
     atom    5 type  1   force =    -0.00114941    0.00446736    0.00000000
     atom    6 type  1   force =    -0.00000868   -0.00158083    0.00000000
     atom    7 type  1   force =     0.00081544    0.00045627    0.00000000
     atom    8 type  1   force =    -0.00208088   -0.00040837    0.00000000
     atom    9 type  1   force =     0.01299898   -0.00749892    0.00000000
     atom   10 type  1   force =     0.00442183   -0.00119621    0.00000000
     atom   11 type  1   force =     0.00072532    0.00202886    0.00000000
     atom   12 type  1   force =     0.00116651    0.00445725    0.00000000
     atom   13 type  1   force =    -0.00196828   -0.00113780    0.00000000
     atom   14 type  1   force =     0.00001591    0.01495431    0.00000000
     atom   15 type  1   force =     0.00205659   -0.00039839    0.00000000
     atom   16 type  1   force =    -0.01296994   -0.00751342    0.00000000
     atom   17 type  1   force =     0.00137462   -0.00159380    0.00000000
     atom   18 type  1   force =     0.00000728   -0.00092985    0.00000000
     atom   19 type  1   force =    -0.00069909    0.00203553    0.00000000
     atom   20 type  1   force =    -0.00066997   -0.00036462    0.00000000
     atom   21 type  1   force =     0.00002077    0.00099293    0.00000000
     atom   22 type  1   force =    -0.00082072    0.00047060    0.00000000
     atom   23 type  1   force =     0.00088921   -0.00053873    0.00000000
     atom   24 type  1   force =    -0.00327068   -0.00323053    0.00000000
     atom   25 type  1   force =    -0.00001094    0.00231220    0.00000000
     atom   26 type  1   force =    -0.00443129   -0.00122624    0.00000000
     atom   27 type  1   force =     0.00133720    0.00079161    0.00000000
     atom   28 type  1   force =     0.00067333   -0.00036016    0.00000000
     atom   29 type  1   force =     0.00193973   -0.00112284    0.00000000
     atom   30 type  1   force =     0.00000074    0.00072020    0.00000000
     atom   31 type  1   force =    -0.00087888   -0.00055936    0.00000000

     Total force =     0.029287     Total SCF correction =     0.000577


     Computing stress (Cartesian axis) and pressure

          total   stress  (Ry/bohr**3)                   (kbar)     P=   -0.58
  -0.00000591  -0.00000000   0.00000000         -0.87     -0.00      0.00
  -0.00000000  -0.00000594   0.00000000         -0.00     -0.87      0.00
   0.00000000   0.00000000  -0.00000007          0.00      0.00     -0.01


     number of scf cycles    =   2
     number of bfgs steps    =   1

     enthalpy old            =    -140.9361151682 Ry
     enthalpy new            =    -140.9371171943 Ry

     CASE: enthalpy_new < enthalpy_old


     WARNING: bfgs curvature condition failed, Theta= 0.853
     new trust radius        =       0.0227473869 bohr
     new conv_thr            =       0.0000010000 Ry

     new unit-cell volume =  37103.11465 a.u.^3 (  5498.11427 Ang^3 )
     density =      0.28071 g/cm^3

CELL_PARAMETERS (alat= 33.68096681)
   0.999634740   0.000000011   0.000000000
  -0.499817361   0.865707264   0.000000000
   0.000000000   0.000000000   1.122132950

ATOMIC_POSITIONS (angstrom)
Al       0.004691551   2.566761702   0.000000000
Al       2.224309872   1.283182616   0.000000000
Al      -2.227057194   6.429106985   0.000000000
Al      -0.002190896   5.144563858   0.000000000
Al      -4.456032779  10.293107038   0.000000000
Al      -2.227052260   8.998124844   0.000000000
Al      -6.679884039  14.144752835   0.000000000
Al      -4.457794883  12.857013248   0.000000000
Al       4.471548287   2.561606089   0.000000000
Al       2.233683568   6.427480586   0.000000000
Al       4.455093089   5.147068114   0.000000000
Al       0.001914986  10.293104908   0.000000000
Al       2.224487124   8.999198138   0.000000000
Al      -2.227034882  14.163987417   0.000000000
Al       0.003695990  12.857042929   0.000000000
Al       8.891063983   2.561614832   0.000000000
Al      11.138287776   1.283243143   0.000000000
Al       6.681317921   6.427617575   0.000000000
Al       8.907561776   5.147100234   0.000000000
Al       4.453509167  10.286204748   0.000000000
Al       6.681363297   9.002290759   0.000000000
Al       2.225784551  14.144801450   0.000000000
Al       4.455648404  12.857352634   0.000000000
Al      13.357886847   2.566797798   0.000000000
Al      15.589676293   1.288993998   0.000000000
Al      11.128908922   6.427491679   0.000000000
Al      13.364809403   5.144609885   0.000000000
Al       8.909141605  10.286219781   0.000000000
Al      11.138144475   8.999252616   0.000000000
Al       6.681333001  14.144800564   0.000000000
Al       8.907074039  12.857348569   0.000000000



     Writing output data file 10al_planar_2x2_vcr.save/
     NEW-OLD atomic charge density approx. for the potential

     negative rho (up, down):  4.812E-07 0.000E+00
     extrapolated charge   92.95880, renormalised to   93.00000

     total cpu time spent up to now is      784.3 secs

     Self-consistent Calculation

     iteration #  1     ecut=    80.00 Ry     beta= 0.40
     Davidson diagonalization with overlap
     ethr =  1.00E-06,  avg # of iterations =  4.0

     negative rho (up, down):  2.409E-07 0.000E+00

     total cpu time spent up to now is      814.3 secs

     total energy              =    -140.93841421 Ry
     Harris-Foulkes estimate   =    -141.14241404 Ry
     estimated scf accuracy    <       0.00012529 Ry

     iteration #  2     ecut=    80.00 Ry     beta= 0.40
     Davidson diagonalization with overlap
     ethr =  1.35E-07,  avg # of iterations =  7.0

     negative rho (up, down):  2.157E-07 0.000E+00

     total cpu time spent up to now is      844.2 secs

     total energy              =    -140.93838191 Ry
     Harris-Foulkes estimate   =    -140.93858020 Ry
     estimated scf accuracy    <       0.00143470 Ry

     iteration #  3     ecut=    80.00 Ry     beta= 0.40
     Davidson diagonalization with overlap
     ethr =  1.35E-07,  avg # of iterations =  4.0

     negative rho (up, down):  1.411E-07 0.000E+00

     total cpu time spent up to now is      869.3 secs

     total energy              =    -140.93847818 Ry
     Harris-Foulkes estimate   =    -140.93848680 Ry
     estimated scf accuracy    <       0.00004188 Ry

     iteration #  4     ecut=    80.00 Ry     beta= 0.40
     Davidson diagonalization with overlap
     ethr =  4.50E-08,  avg # of iterations =  3.0

     negative rho (up, down):  1.066E-07 0.000E+00

     total cpu time spent up to now is      890.6 secs

     total energy              =    -140.93847848 Ry
     Harris-Foulkes estimate   =    -140.93848403 Ry
     estimated scf accuracy    <       0.00002424 Ry

     iteration #  5     ecut=    80.00 Ry     beta= 0.40
     Davidson diagonalization with overlap
     ethr =  2.61E-08,  avg # of iterations =  3.0

     negative rho (up, down):  4.934E-08 0.000E+00

     total cpu time spent up to now is      911.9 secs

     total energy              =    -140.93848083 Ry
     Harris-Foulkes estimate   =    -140.93848355 Ry
     estimated scf accuracy    <       0.00001736 Ry

     iteration #  6     ecut=    80.00 Ry     beta= 0.40
     Davidson diagonalization with overlap
     ethr =  1.87E-08,  avg # of iterations =  1.0

     negative rho (up, down):  1.779E-08 0.000E+00

     total cpu time spent up to now is      931.3 secs

     total energy              =    -140.93848232 Ry
     Harris-Foulkes estimate   =    -140.93848256 Ry
     estimated scf accuracy    <       0.00000173 Ry

     iteration #  7     ecut=    80.00 Ry     beta= 0.40
     Davidson diagonalization with overlap
     ethr =  1.86E-09,  avg # of iterations =  5.0

     negative rho (up, down):  1.142E-08 0.000E+00

     total cpu time spent up to now is      957.9 secs

     total energy              =    -140.93848228 Ry
     Harris-Foulkes estimate   =    -140.93848314 Ry
     estimated scf accuracy    <       0.00000644 Ry

     iteration #  8     ecut=    80.00 Ry     beta= 0.40
     Davidson diagonalization with overlap
     ethr =  1.86E-09,  avg # of iterations =  4.0

     total cpu time spent up to now is      979.8 secs

     End of self-consistent calculation

          k = 0.0000 0.0000 0.0000 (448403 PWs)   bands (ev):

    -9.9541  -9.4491  -9.4357  -9.4355  -9.4240  -9.4237  -9.1415  -8.4034
    -8.4033  -8.3871  -8.3801  -8.3800  -8.3072  -8.2508  -8.2508  -7.5839
    -6.9324  -6.9324  -6.8227  -6.4780  -6.4780  -6.4768  -6.3751  -6.3750
    -5.4774  -4.8346  -4.8343  -4.8327  -4.7376  -4.7374  -4.4748  -4.4663
    -4.4436  -4.4436  -4.1293  -4.1291  -3.9783  -3.4711  -3.4669  -3.4668
    -3.4588  -3.4586  -3.3975  -3.2715  -3.2714  -3.2329  -3.2197  -2.9654
    -2.9611  -2.9610  -2.9438  -2.5134  -2.5133  -2.4424  -2.4411  -2.4367

     the Fermi energy is    -3.0906 ev

!    total energy              =    -140.93848242 Ry
     Harris-Foulkes estimate   =    -140.93848268 Ry
     estimated scf accuracy    <       0.00000038 Ry

     The total energy is the sum of the following terms:

     one-electron contribution =    -502.26145802 Ry
     hartree contribution      =     259.87534303 Ry
     xc contribution           =     -61.33163437 Ry
     ewald contribution        =     162.85943589 Ry
     smearing contrib. (-TS)   =      -0.08016895 Ry

     convergence has been achieved in   8 iterations

     Forces acting on atoms (cartesian axes, Ry/au):

     atom    1 type  1   force =     0.00263022   -0.00229080    0.00000000
     atom    2 type  1   force =     0.00023701   -0.00081393    0.00000000
     atom    3 type  1   force =     0.00000363    0.00000151    0.00000000
     atom    4 type  1   force =    -0.00072890    0.00045620    0.00000000
     atom    5 type  1   force =    -0.00063100    0.00346981    0.00000000
     atom    6 type  1   force =    -0.00001044   -0.00085829    0.00000000
     atom    7 type  1   force =     0.00041800    0.00024174    0.00000000
     atom    8 type  1   force =    -0.00058107    0.00056635    0.00000000
     atom    9 type  1   force =     0.01282285   -0.00742953    0.00000000
     atom   10 type  1   force =     0.00326437   -0.00114766    0.00000000
     atom   11 type  1   force =     0.00081391    0.00022302    0.00000000
     atom   12 type  1   force =     0.00065245    0.00347299    0.00000000
     atom   13 type  1   force =    -0.00191185   -0.00110898    0.00000000
     atom   14 type  1   force =     0.00001118    0.01479154    0.00000000
     atom   15 type  1   force =     0.00055738    0.00055855    0.00000000
     atom   16 type  1   force =    -0.01279100   -0.00746410    0.00000000
     atom   17 type  1   force =    -0.00024562   -0.00078814    0.00000000
     atom   18 type  1   force =    -0.00000170   -0.00043307    0.00000000
     atom   19 type  1   force =    -0.00079629    0.00024835    0.00000000
     atom   20 type  1   force =    -0.00091130   -0.00048938    0.00000000
     atom   21 type  1   force =     0.00001546    0.00070713    0.00000000
     atom   22 type  1   force =    -0.00041476    0.00025456    0.00000000
     atom   23 type  1   force =     0.00064389   -0.00041035    0.00000000
     atom   24 type  1   force =    -0.00265072   -0.00229580    0.00000000
     atom   25 type  1   force =    -0.00000009    0.00223610    0.00000000
     atom   26 type  1   force =    -0.00328479   -0.00117752    0.00000000
     atom   27 type  1   force =     0.00072767    0.00044580    0.00000000
     atom   28 type  1   force =     0.00090991   -0.00047307    0.00000000
     atom   29 type  1   force =     0.00188418   -0.00108561    0.00000000
     atom   30 type  1   force =    -0.00002222    0.00104142    0.00000000
     atom   31 type  1   force =    -0.00061035   -0.00044883    0.00000000

     Total force =     0.027526     Total SCF correction =     0.000380


     Computing stress (Cartesian axis) and pressure

          total   stress  (Ry/bohr**3)                   (kbar)     P=   -0.60
  -0.00000606  -0.00000001   0.00000000         -0.89     -0.00      0.00
  -0.00000001  -0.00000612   0.00000000         -0.00     -0.90      0.00
   0.00000000   0.00000000   0.00000003          0.00      0.00      0.00


     number of scf cycles    =   3
     number of bfgs steps    =   2

     enthalpy old            =    -140.9371171943 Ry
     enthalpy new            =    -140.9384824237 Ry

     CASE: enthalpy_new < enthalpy_old

     new trust radius        =       0.0341135299 bohr
     new conv_thr            =       0.0000010000 Ry

     new unit-cell volume =  37077.91830 a.u.^3 (  5494.38055 Ang^3 )
     density =      0.28090 g/cm^3

CELL_PARAMETERS (alat= 33.68096681)
   0.999296690  -0.000000312   0.000000000
  -0.499648615   0.865412192   0.000000000
   0.000000000   0.000000000   1.122132950

ATOMIC_POSITIONS (angstrom)
Al       0.008429788   2.562240028   0.000000000
Al       2.222361675   1.281023908   0.000000000
Al      -2.226291713   6.426922615   0.000000000
Al      -0.003671763   5.143695520   0.000000000
Al      -4.455786294  10.294722062   0.000000000
Al      -2.226308522   8.993325049   0.000000000
Al      -6.676737161  14.140444313   0.000000000
Al      -4.458367657  12.852408435   0.000000000
Al       4.485645243   2.551676371   0.000000000
Al       2.237924949   6.423854626   0.000000000
Al       4.454457271   5.147238631   0.000000000
Al       0.003185667  10.294710819   0.000000000
Al       2.221369386   8.994762777   0.000000000
Al      -2.226274377  14.177157984   0.000000000
Al       0.005737321  12.852435464   0.000000000
Al       8.872480170   2.551658935   0.000000000
Al      11.135703267   1.281104348   0.000000000
Al       6.679061106   6.424462769   0.000000000
Al       8.903685560   5.147293254   0.000000000
Al       4.451141753  10.282248174   0.000000000
Al       6.679120987   9.000366660   0.000000000
Al       2.224138849  14.140501822   0.000000000
Al       4.455179482  12.852322477   0.000000000
Al      13.349620346   2.562262599   0.000000000
Al      15.584396749   1.291315880   0.000000000
Al      11.120122295   6.423836162   0.000000000
Al      13.361760061   5.143724781   0.000000000
Al       8.906987197  10.282269263   0.000000000
Al      11.136699701   8.994836885   0.000000000
Al       6.679051264  14.140937355   0.000000000
Al       8.903044877  12.852283311   0.000000000



     Writing output data file 10al_planar_2x2_vcr.save/
     NEW-OLD atomic charge density approx. for the potential

     negative rho (up, down):  7.505E-07 0.000E+00
     extrapolated charge   92.93685, renormalised to   93.00000

     total cpu time spent up to now is     1053.7 secs

     Self-consistent Calculation

     iteration #  1     ecut=    80.00 Ry     beta= 0.40
     Davidson diagonalization with overlap
     ethr =  1.00E-06,  avg # of iterations =  5.0

     negative rho (up, down):  3.818E-07 0.000E+00

     total cpu time spent up to now is     1087.4 secs

     total energy              =    -140.94023209 Ry
     Harris-Foulkes estimate   =    -141.25306319 Ry
     estimated scf accuracy    <       0.00021355 Ry

     iteration #  2     ecut=    80.00 Ry     beta= 0.40
     Davidson diagonalization with overlap
     c_bands:  1 eigenvalues not converged
     ethr =  2.30E-07,  avg # of iterations = 20.0

     negative rho (up, down):  3.448E-07 0.000E+00

     total cpu time spent up to now is     1123.2 secs

     total energy              =    -140.94017985 Ry
     Harris-Foulkes estimate   =    -140.94049665 Ry
     estimated scf accuracy    <       0.00243924 Ry

     iteration #  3     ecut=    80.00 Ry     beta= 0.40
     Davidson diagonalization with overlap
     ethr =  2.30E-07,  avg # of iterations =  5.0

     negative rho (up, down):  2.355E-07 0.000E+00

     total cpu time spent up to now is     1148.0 secs

     total energy              =    -140.94032432 Ry
     Harris-Foulkes estimate   =    -140.94034124 Ry
     estimated scf accuracy    <       0.00007370 Ry

     iteration #  4     ecut=    80.00 Ry     beta= 0.40
     Davidson diagonalization with overlap
     ethr =  7.92E-08,  avg # of iterations =  3.0

     negative rho (up, down):  1.634E-07 0.000E+00

     total cpu time spent up to now is     1167.6 secs

     total energy              =    -140.94032591 Ry
     Harris-Foulkes estimate   =    -140.94033338 Ry
     estimated scf accuracy    <       0.00003338 Ry

     iteration #  5     ecut=    80.00 Ry     beta= 0.40
     Davidson diagonalization with overlap
     ethr =  3.59E-08,  avg # of iterations =  4.0

     negative rho (up, down):  9.507E-08 0.000E+00

     total cpu time spent up to now is     1189.1 secs

     total energy              =    -140.94032427 Ry
     Harris-Foulkes estimate   =    -140.94033660 Ry
     estimated scf accuracy    <       0.00007829 Ry

     iteration #  6     ecut=    80.00 Ry     beta= 0.40
     Davidson diagonalization with overlap
     ethr =  3.59E-08,  avg # of iterations =  3.0

     negative rho (up, down):  2.836E-08 0.000E+00

     total cpu time spent up to now is     1209.9 secs

     total energy              =    -140.94033045 Ry
     Harris-Foulkes estimate   =    -140.94033145 Ry
     estimated scf accuracy    <       0.00000702 Ry

     iteration #  7     ecut=    80.00 Ry     beta= 0.40
     Davidson diagonalization with overlap
     ethr =  7.55E-09,  avg # of iterations =  4.0

     negative rho (up, down):  1.765E-08 0.000E+00

     total cpu time spent up to now is     1232.3 secs

     total energy              =    -140.94033094 Ry
     Harris-Foulkes estimate   =    -140.94033194 Ry
     estimated scf accuracy    <       0.00000554 Ry

     iteration #  8     ecut=    80.00 Ry     beta= 0.40
     Davidson diagonalization with overlap
     ethr =  5.95E-09,  avg # of iterations =  1.0

     total cpu time spent up to now is     1251.8 secs

     total energy              =    -140.94033152 Ry
     Harris-Foulkes estimate   =    -140.94033170 Ry
     estimated scf accuracy    <       0.00000133 Ry

     iteration #  9     ecut=    80.00 Ry     beta= 0.40
     Davidson diagonalization with overlap
     ethr =  1.43E-09,  avg # of iterations =  4.0

     total cpu time spent up to now is     1277.1 secs

     End of self-consistent calculation

          k = 0.0000 0.0000 0.0000 (448403 PWs)   bands (ev):

    -9.9555  -9.4499  -9.4395  -9.4392  -9.4216  -9.4209  -9.1384  -8.4042
    -8.4029  -8.3925  -8.3745  -8.3730  -8.3104  -8.2449  -8.2446  -7.5818
    -6.9328  -6.9326  -6.8235  -6.4785  -6.4784  -6.4694  -6.3783  -6.3779
    -5.4885  -4.8300  -4.8280  -4.8272  -4.7387  -4.7380  -4.4724  -4.4645
    -4.4447  -4.4444  -4.1351  -4.1351  -3.9789  -3.4712  -3.4672  -3.4672
    -3.4585  -3.4581  -3.3934  -3.2694  -3.2690  -3.2549  -3.2176  -2.9608
    -2.9573  -2.9571  -2.9443  -2.5087  -2.5083  -2.4446  -2.4404  -2.4356

     the Fermi energy is    -3.0904 ev

!    total energy              =    -140.94033128 Ry
     Harris-Foulkes estimate   =    -140.94033174 Ry
     estimated scf accuracy    <       0.00000064 Ry

     The total energy is the sum of the following terms:

     one-electron contribution =    -502.46996977 Ry
     hartree contribution      =     259.97849655 Ry
     xc contribution           =     -61.32828914 Ry
     ewald contribution        =     162.95893608 Ry
     smearing contrib. (-TS)   =      -0.07950500 Ry

     convergence has been achieved in   9 iterations

     Forces acting on atoms (cartesian axes, Ry/au):

     atom    1 type  1   force =     0.00193038   -0.00128907    0.00000000
     atom    2 type  1   force =     0.00234797    0.00051870    0.00000000
     atom    3 type  1   force =     0.00000503    0.00001424    0.00000000
     atom    4 type  1   force =     0.00007337    0.00019314    0.00000000
     atom    5 type  1   force =     0.00001031    0.00220336    0.00000000
     atom    6 type  1   force =     0.00002806    0.00005900    0.00000000
     atom    7 type  1   force =    -0.00027973   -0.00018712    0.00000000
     atom    8 type  1   force =     0.00145665    0.00168986    0.00000000
     atom    9 type  1   force =     0.01259198   -0.00745443    0.00000000
     atom   10 type  1   force =     0.00176973   -0.00093675    0.00000000
     atom   11 type  1   force =     0.00093308   -0.00211932    0.00000000
     atom   12 type  1   force =    -0.00002794    0.00216692    0.00000000
     atom   13 type  1   force =    -0.00208572   -0.00130922    0.00000000
     atom   14 type  1   force =    -0.00003183    0.01473484    0.00000000
     atom   15 type  1   force =    -0.00142027    0.00169020    0.00000000
     atom   16 type  1   force =    -0.01260662   -0.00741188    0.00000000
     atom   17 type  1   force =    -0.00237660    0.00046839    0.00000000
     atom   18 type  1   force =     0.00000185    0.00009896    0.00000000
     atom   19 type  1   force =    -0.00098435   -0.00216406    0.00000000
     atom   20 type  1   force =    -0.00101655   -0.00042419    0.00000000
     atom   21 type  1   force =    -0.00005332    0.00035907    0.00000000
     atom   22 type  1   force =     0.00026411   -0.00018128    0.00000000
     atom   23 type  1   force =     0.00017294   -0.00032176    0.00000000
     atom   24 type  1   force =    -0.00186269   -0.00127178    0.00000000
     atom   25 type  1   force =    -0.00002204    0.00215897    0.00000000
     atom   26 type  1   force =    -0.00174959   -0.00088004    0.00000000
     atom   27 type  1   force =    -0.00004934    0.00017483    0.00000000
     atom   28 type  1   force =     0.00110080   -0.00041007    0.00000000
     atom   29 type  1   force =     0.00204447   -0.00131548    0.00000000
     atom   30 type  1   force =     0.00006638    0.00142342    0.00000000
     atom   31 type  1   force =    -0.00023051   -0.00027744    0.00000000

     Total force =     0.026971     Total SCF correction =     0.000547


     Computing stress (Cartesian axis) and pressure

          total   stress  (Ry/bohr**3)                   (kbar)     P=   -0.62
  -0.00000627   0.00000003   0.00000000         -0.92      0.00      0.00
   0.00000003  -0.00000640   0.00000000          0.00     -0.94      0.00
   0.00000000   0.00000000   0.00000004          0.00      0.00      0.01


     number of scf cycles    =   4
     number of bfgs steps    =   3

     enthalpy old            =    -140.9384824237 Ry
     enthalpy new            =    -140.9403312810 Ry

     CASE: enthalpy_new < enthalpy_old

     new trust radius        =       0.0511529679 bohr
     new conv_thr            =       0.0000010000 Ry

     new unit-cell volume =  37039.57945 a.u.^3 (  5488.69932 Ang^3 )
     density =      0.28119 g/cm^3

CELL_PARAMETERS (alat= 33.68096681)
   0.998783124   0.000000522   0.000000000
  -0.499391110   0.864961460   0.000000000
   0.000000000   0.000000000   1.122132950

ATOMIC_POSITIONS (angstrom)
Al       0.013699350   2.555916208   0.000000000
Al       2.220533210   1.278514933   0.000000000
Al      -2.225117639   6.423597981   0.000000000
Al      -0.005475492   5.142243091   0.000000000
Al      -4.455048835  10.296407426   0.000000000
Al      -2.225139653   8.986513203   0.000000000
Al      -6.672342073  14.133608414   0.000000000
Al      -4.458103598  12.845950768   0.000000000
Al       4.506684713   2.536705508   0.000000000
Al       2.243511684   6.418491277   0.000000000
Al       4.453542778   5.146232399   0.000000000
Al       0.004752211  10.296359192   0.000000000
Al       2.216554672   8.987890429   0.000000000
Al      -2.225129404  14.196833968   0.000000000
Al       0.007779140  12.845987407   0.000000000
Al       8.844598272   2.536710153   0.000000000
Al      11.130635437   1.278584762   0.000000000
Al       6.675644901   6.419946301   0.000000000
Al       8.897711196   5.146277461   0.000000000
Al       4.447551661  10.276301684   0.000000000
Al       6.675680210   8.997240656   0.000000000
Al       2.222048578  14.133685848   0.000000000
Al       4.454203236  12.844700524   0.000000000
Al      13.337540480   2.555949839   0.000000000
Al      15.576361464   1.294778555   0.000000000
Al      11.107676111   6.418499871   0.000000000
Al      13.356709846   5.142259996   0.000000000
Al       8.903793731  10.276333776   0.000000000
Al      11.134597627   8.987984506   0.000000000
Al       6.675666226  14.135227540   0.000000000
Al       8.897156809  12.844673197   0.000000000



     Writing output data file 10al_planar_2x2_vcr.save/
     NEW-OLD atomic charge density approx. for the potential

     negative rho (up, down):  1.151E-06 0.000E+00
     extrapolated charge   92.90382, renormalised to   93.00000

     total cpu time spent up to now is     1350.2 secs

     Self-consistent Calculation

     iteration #  1     ecut=    80.00 Ry     beta= 0.40
     Davidson diagonalization with overlap
     ethr =  1.00E-06,  avg # of iterations =  6.0

     negative rho (up, down):  5.952E-07 0.000E+00

     total cpu time spent up to now is     1386.1 secs

     total energy              =    -140.94275415 Ry
     Harris-Foulkes estimate   =    -141.41952656 Ry
     estimated scf accuracy    <       0.00030804 Ry

     iteration #  2     ecut=    80.00 Ry     beta= 0.40
     Davidson diagonalization with overlap
     ethr =  3.31E-07,  avg # of iterations =  5.0

     negative rho (up, down):  5.191E-07 0.000E+00

     total cpu time spent up to now is     1417.3 secs

     total energy              =    -140.94281236 Ry
     Harris-Foulkes estimate   =    -140.94306014 Ry
     estimated scf accuracy    <       0.00148908 Ry

     iteration #  3     ecut=    80.00 Ry     beta= 0.40
     Davidson diagonalization with overlap
     ethr =  3.31E-07,  avg # of iterations =  4.0

     negative rho (up, down):  3.540E-07 0.000E+00

     total cpu time spent up to now is     1441.2 secs

     total energy              =    -140.94292331 Ry
     Harris-Foulkes estimate   =    -140.94296937 Ry
     estimated scf accuracy    <       0.00026925 Ry

     iteration #  4     ecut=    80.00 Ry     beta= 0.40
     Davidson diagonalization with overlap
     ethr =  2.90E-07,  avg # of iterations =  1.0

     negative rho (up, down):  1.977E-07 0.000E+00

     total cpu time spent up to now is     1460.2 secs

     total energy              =    -140.94293336 Ry
     Harris-Foulkes estimate   =    -140.94294284 Ry
     estimated scf accuracy    <       0.00003743 Ry

     iteration #  5     ecut=    80.00 Ry     beta= 0.40
     Davidson diagonalization with overlap
     ethr =  4.02E-08,  avg # of iterations =  5.0

     negative rho (up, down):  8.840E-08 0.000E+00

     total cpu time spent up to now is     1485.6 secs

     total energy              =    -140.94292444 Ry
     Harris-Foulkes estimate   =    -140.94295539 Ry
     estimated scf accuracy    <       0.00022401 Ry

     iteration #  6     ecut=    80.00 Ry     beta= 0.40
     Davidson diagonalization with overlap
     ethr =  4.02E-08,  avg # of iterations =  4.0

     negative rho (up, down):  4.658E-08 0.000E+00

     total cpu time spent up to now is     1508.0 secs

     total energy              =    -140.94293855 Ry
     Harris-Foulkes estimate   =    -140.94294313 Ry
     estimated scf accuracy    <       0.00003882 Ry

     iteration #  7     ecut=    80.00 Ry     beta= 0.40
     Davidson diagonalization with overlap
     ethr =  4.02E-08,  avg # of iterations =  1.0

     negative rho (up, down):  3.187E-08 0.000E+00

     total cpu time spent up to now is     1526.6 secs

     total energy              =    -140.94293944 Ry
     Harris-Foulkes estimate   =    -140.94294043 Ry
     estimated scf accuracy    <       0.00000998 Ry

     iteration #  8     ecut=    80.00 Ry     beta= 0.40
     Davidson diagonalization with overlap
     ethr =  1.07E-08,  avg # of iterations =  4.0

     negative rho (up, down):  1.250E-08 0.000E+00

     total cpu time spent up to now is     1546.9 secs

     total energy              =    -140.94293956 Ry
     Harris-Foulkes estimate   =    -140.94294041 Ry
     estimated scf accuracy    <       0.00000566 Ry

     iteration #  9     ecut=    80.00 Ry     beta= 0.40
     Davidson diagonalization with overlap
     ethr =  6.08E-09,  avg # of iterations =  4.0

     total cpu time spent up to now is     1568.5 secs

     total energy              =    -140.94293996 Ry
     Harris-Foulkes estimate   =    -140.94294015 Ry
     estimated scf accuracy    <       0.00000246 Ry

     iteration # 10     ecut=    80.00 Ry     beta= 0.40
     Davidson diagonalization with overlap
     ethr =  2.64E-09,  avg # of iterations =  3.0

     total cpu time spent up to now is     1588.8 secs

     total energy              =    -140.94293962 Ry
     Harris-Foulkes estimate   =    -140.94293984 Ry
     estimated scf accuracy    <       0.00000215 Ry

     iteration # 11     ecut=    80.00 Ry     beta= 0.40
     Davidson diagonalization with overlap
     ethr =  2.31E-09,  avg # of iterations =  1.0

     total cpu time spent up to now is     1607.0 secs

     total energy              =    -140.94293947 Ry
     Harris-Foulkes estimate   =    -140.94293968 Ry
     estimated scf accuracy    <       0.00000114 Ry

     iteration # 12     ecut=    80.00 Ry     beta= 0.40
     Davidson diagonalization with overlap
     ethr =  1.23E-09,  avg # of iterations =  4.0

     total cpu time spent up to now is     1626.7 secs

     End of self-consistent calculation

          k = 0.0000 0.0000 0.0000 (448403 PWs)   bands (ev):

    -9.9570  -9.4512  -9.4439  -9.4437  -9.4172  -9.4166  -9.1345  -8.4030
    -8.4019  -8.3985  -8.3675  -8.3664  -8.3137  -8.2353  -8.2351  -7.5796
    -6.9330  -6.9330  -6.8238  -6.4782  -6.4777  -6.4589  -6.3819  -6.3812
    -5.5050  -4.8247  -4.8182  -4.8178  -4.7381  -4.7377  -4.4687  -4.4615
    -4.4454  -4.4451  -4.1435  -4.1434  -3.9794  -3.4714  -3.4689  -3.4686
    -3.4555  -3.4550  -3.3874  -3.2894  -3.2651  -3.2647  -3.2155  -2.9605
    -2.9514  -2.9512  -2.9358  -2.5011  -2.5010  -2.4447  -2.4415  -2.4281

     the Fermi energy is    -3.0896 ev

!    total energy              =    -140.94293947 Ry
     Harris-Foulkes estimate   =    -140.94293955 Ry
     estimated scf accuracy    <       0.00000013 Ry

     The total energy is the sum of the following terms:

     one-electron contribution =    -502.78787861 Ry
     hartree contribution      =     260.13361995 Ry
     xc contribution           =     -61.32324019 Ry
     ewald contribution        =     163.11272666 Ry
     smearing contrib. (-TS)   =      -0.07816727 Ry

     convergence has been achieved in  12 iterations

     Forces acting on atoms (cartesian axes, Ry/au):

     atom    1 type  1   force =     0.00087126    0.00026817    0.00000000
     atom    2 type  1   force =     0.00506879    0.00190308    0.00000000
     atom    3 type  1   force =     0.00000469    0.00000040    0.00000000
     atom    4 type  1   force =     0.00104744   -0.00043913    0.00000000
     atom    5 type  1   force =     0.00078055    0.00050734    0.00000000
     atom    6 type  1   force =     0.00002864    0.00121609    0.00000000
     atom    7 type  1   force =    -0.00091192   -0.00053815    0.00000000
     atom    8 type  1   force =     0.00408838    0.00339944    0.00000000
     atom    9 type  1   force =     0.01272768   -0.00744771    0.00000000
     atom   10 type  1   force =    -0.00000838   -0.00080368    0.00000000
     atom   11 type  1   force =     0.00104459   -0.00522716    0.00000000
     atom   12 type  1   force =    -0.00078790    0.00047692    0.00000000
     atom   13 type  1   force =    -0.00200863   -0.00123875    0.00000000
     atom   14 type  1   force =    -0.00003365    0.01483848    0.00000000
     atom   15 type  1   force =    -0.00404185    0.00338774    0.00000000
     atom   16 type  1   force =    -0.01272720   -0.00740727    0.00000000
     atom   17 type  1   force =    -0.00509682    0.00188682    0.00000000
     atom   18 type  1   force =    -0.00000500    0.00081435    0.00000000
     atom   19 type  1   force =    -0.00107845   -0.00529214    0.00000000
     atom   20 type  1   force =    -0.00146978   -0.00073507    0.00000000
     atom   21 type  1   force =    -0.00004797   -0.00012959    0.00000000
     atom   22 type  1   force =     0.00088131   -0.00053787    0.00000000
     atom   23 type  1   force =    -0.00023817   -0.00001195    0.00000000
     atom   24 type  1   force =    -0.00084332    0.00027056    0.00000000
     atom   25 type  1   force =    -0.00000473    0.00207827    0.00000000
     atom   26 type  1   force =     0.00001032   -0.00076647    0.00000000
     atom   27 type  1   force =    -0.00102186   -0.00045047    0.00000000
     atom   28 type  1   force =     0.00152405   -0.00070980    0.00000000
     atom   29 type  1   force =     0.00198526   -0.00124482    0.00000000
     atom   30 type  1   force =     0.00006481    0.00189410    0.00000000
     atom   31 type  1   force =     0.00019785    0.00003826    0.00000000

     Total force =     0.029378     Total SCF correction =     0.000255


     Computing stress (Cartesian axis) and pressure

          total   stress  (Ry/bohr**3)                   (kbar)     P=   -0.66
  -0.00000662   0.00000002   0.00000000         -0.97      0.00      0.00
   0.00000002  -0.00000676   0.00000000          0.00     -0.99      0.00
   0.00000000   0.00000000   0.00000001          0.00      0.00      0.00


     number of scf cycles    =   5
     number of bfgs steps    =   4

     enthalpy old            =    -140.9403312810 Ry
     enthalpy new            =    -140.9429394681 Ry

     CASE: enthalpy_new < enthalpy_old

     new trust radius        =       0.0766895258 bohr
     new conv_thr            =       0.0000010000 Ry

     new unit-cell volume =  36981.72066 a.u.^3 (  5480.12553 Ang^3 )
     density =      0.28163 g/cm^3

CELL_PARAMETERS (alat= 33.68096681)
   0.998007318   0.000001382   0.000000000
  -0.499002462   0.864281223   0.000000000
   0.000000000   0.000000000   1.122132950

ATOMIC_POSITIONS (angstrom)
Al       0.021107291   2.547123835   0.000000000
Al       2.218925385   1.275307256   0.000000000
Al      -2.223345266   6.418570813   0.000000000
Al      -0.007784025   5.139732275   0.000000000
Al      -4.453611339  10.298124898   0.000000000
Al      -2.223381254   8.976734687   0.000000000
Al      -6.665954391  14.123161403   0.000000000
Al      -4.456555452  12.836951695   0.000000000
Al       4.538226862   2.514306872   0.000000000
Al       2.251124994   6.410473578   0.000000000
Al       4.452169205   5.143362110   0.000000000
Al       0.006797078  10.298025967   0.000000000
Al       2.209399176   8.977614699   0.000000000
Al      -2.223400797  14.226221334   0.000000000
Al       0.009702775  12.836994545   0.000000000
Al       8.802732183   2.514335433   0.000000000
Al      11.121827656   1.275388571   0.000000000
Al       6.670478309   6.413435208   0.000000000
Al       8.888693480   5.143384876   0.000000000
Al       4.441921410  10.267154234   0.000000000
Al       6.670492060   8.992289747   0.000000000
Al       2.219123706  14.123261913   0.000000000
Al       4.452555576  12.833363720   0.000000000
Al      13.319807620   2.547154948   0.000000000
Al      15.564235322   1.299908428   0.000000000
Al      11.089679682   6.410496907   0.000000000
Al      13.348655537   5.139731702   0.000000000
Al       8.899137947  10.267205789   0.000000000
Al      11.131310895   8.977737683   0.000000000
Al       6.670536864  14.126766037   0.000000000
Al       8.888444814  12.833348697   0.000000000



     Writing output data file 10al_planar_2x2_vcr.save/
     NEW-OLD atomic charge density approx. for the potential

     negative rho (up, down):  1.733E-06 0.000E+00
     extrapolated charge   92.85462, renormalised to   93.00000

     total cpu time spent up to now is     1699.1 secs

     Self-consistent Calculation

     iteration #  1     ecut=    80.00 Ry     beta= 0.40
     Davidson diagonalization with overlap
     ethr =  1.00E-06,  avg # of iterations =  8.0

     negative rho (up, down):  9.120E-07 0.000E+00

     total cpu time spent up to now is     1738.7 secs

     total energy              =    -140.94610881 Ry
     Harris-Foulkes estimate   =    -141.66770334 Ry
     estimated scf accuracy    <       0.00087166 Ry

     iteration #  2     ecut=    80.00 Ry     beta= 0.40
     Davidson diagonalization with overlap
     ethr =  9.37E-07,  avg # of iterations =  6.0

     negative rho (up, down):  8.242E-07 0.000E+00

     total cpu time spent up to now is     1768.4 secs

     total energy              =    -140.94605279 Ry
     Harris-Foulkes estimate   =    -140.94739637 Ry
     estimated scf accuracy    <       0.01038560 Ry

     iteration #  3     ecut=    80.00 Ry     beta= 0.40
     Davidson diagonalization with overlap
     ethr =  9.37E-07,  avg # of iterations = 16.0

     negative rho (up, down):  5.810E-07 0.000E+00

     total cpu time spent up to now is     1799.1 secs

     total energy              =    -140.94657661 Ry
     Harris-Foulkes estimate   =    -140.94663795 Ry
     estimated scf accuracy    <       0.00027434 Ry

     iteration #  4     ecut=    80.00 Ry     beta= 0.40
     Davidson diagonalization with overlap
     ethr =  2.95E-07,  avg # of iterations =  3.0

     negative rho (up, down):  4.278E-07 0.000E+00

     total cpu time spent up to now is     1818.8 secs

     total energy              =    -140.94657274 Ry
     Harris-Foulkes estimate   =    -140.94660631 Ry
     estimated scf accuracy    <       0.00017720 Ry

     iteration #  5     ecut=    80.00 Ry     beta= 0.40
     Davidson diagonalization with overlap
     ethr =  1.91E-07,  avg # of iterations =  2.0

     negative rho (up, down):  2.304E-07 0.000E+00

     total cpu time spent up to now is     1839.6 secs

     total energy              =    -140.94656395 Ry
     Harris-Foulkes estimate   =    -140.94661261 Ry
     estimated scf accuracy    <       0.00029958 Ry

     iteration #  6     ecut=    80.00 Ry     beta= 0.40
     Davidson diagonalization with overlap
     ethr =  1.91E-07,  avg # of iterations =  1.0

     negative rho (up, down):  6.267E-08 0.000E+00

     total cpu time spent up to now is     1860.3 secs

     total energy              =    -140.94658475 Ry
     Harris-Foulkes estimate   =    -140.94659228 Ry
     estimated scf accuracy    <       0.00003729 Ry

     iteration #  7     ecut=    80.00 Ry     beta= 0.40
     Davidson diagonalization with overlap
     ethr =  4.01E-08,  avg # of iterations =  4.0

     negative rho (up, down):  4.367E-08 0.000E+00

     total cpu time spent up to now is     1884.6 secs

     total energy              =    -140.94658795 Ry
     Harris-Foulkes estimate   =    -140.94659429 Ry
     estimated scf accuracy    <       0.00003960 Ry

     iteration #  8     ecut=    80.00 Ry     beta= 0.40
     Davidson diagonalization with overlap
     ethr =  4.01E-08,  avg # of iterations =  1.0

     negative rho (up, down):  2.239E-08 0.000E+00

     total cpu time spent up to now is     1904.5 secs

     total energy              =    -140.94659069 Ry
     Harris-Foulkes estimate   =    -140.94659144 Ry
     estimated scf accuracy    <       0.00000306 Ry

     iteration #  9     ecut=    80.00 Ry     beta= 0.40
     Davidson diagonalization with overlap
     ethr =  3.29E-09,  avg # of iterations =  6.0

     total cpu time spent up to now is     1932.7 secs

     total energy              =    -140.94659077 Ry
     Harris-Foulkes estimate   =    -140.94659136 Ry
     estimated scf accuracy    <       0.00000355 Ry

     iteration # 10     ecut=    80.00 Ry     beta= 0.40
     Davidson diagonalization with overlap
     ethr =  3.29E-09,  avg # of iterations =  3.0

     total cpu time spent up to now is     1955.3 secs

     total energy              =    -140.94659065 Ry
     Harris-Foulkes estimate   =    -140.94659117 Ry
     estimated scf accuracy    <       0.00000379 Ry

     iteration # 11     ecut=    80.00 Ry     beta= 0.40
     Davidson diagonalization with overlap
     ethr =  3.29E-09,  avg # of iterations =  1.0

     total cpu time spent up to now is     1974.1 secs

     End of self-consistent calculation

          k = 0.0000 0.0000 0.0000 (448403 PWs)   bands (ev):

    -9.9602  -9.4539  -9.4513  -9.4509  -9.4120  -9.4117  -9.1303  -8.4073
    -8.4033  -8.4029  -8.3592  -8.3583  -8.3192  -8.2197  -8.2195  -7.5776
    -6.9344  -6.9341  -6.8264  -6.4779  -6.4773  -6.4450  -6.3858  -6.3853
    -5.5298  -4.8186  -4.8065  -4.8058  -4.7363  -4.7361  -4.4639  -4.4573
    -4.4473  -4.4471  -4.1565  -4.1562  -3.9807  -3.4725  -3.4722  -3.4721
    -3.4509  -3.4506  -3.3783  -3.3413  -3.2599  -3.2597  -3.2133  -2.9665
    -2.9430  -2.9429  -2.9170  -2.4917  -2.4911  -2.4506  -2.4413  -2.4412

     the Fermi energy is    -3.0891 ev

!    total energy              =    -140.94659036 Ry
     Harris-Foulkes estimate   =    -140.94659087 Ry
     estimated scf accuracy    <       0.00000068 Ry

     The total energy is the sum of the following terms:

     one-electron contribution =    -503.27631087 Ry
     hartree contribution      =     260.37281686 Ry
     xc contribution           =     -61.31664753 Ry
     ewald contribution        =     163.34991717 Ry
     smearing contrib. (-TS)   =      -0.07636600 Ry

     convergence has been achieved in  11 iterations

     Forces acting on atoms (cartesian axes, Ry/au):

     atom    1 type  1   force =    -0.00075166    0.00239123    0.00000000
     atom    2 type  1   force =     0.00877847    0.00375794    0.00000000
     atom    3 type  1   force =    -0.00000841   -0.00002465    0.00000000
     atom    4 type  1   force =     0.00221726   -0.00141400    0.00000000
     atom    5 type  1   force =     0.00159247   -0.00193999    0.00000000
     atom    6 type  1   force =    -0.00002347    0.00264719    0.00000000
     atom    7 type  1   force =    -0.00181914   -0.00105770    0.00000000
     atom    8 type  1   force =     0.00770517    0.00584799    0.00000000
     atom    9 type  1   force =     0.01302596   -0.00738370    0.00000000
     atom   10 type  1   force =    -0.00224359   -0.00057689    0.00000000
     atom   11 type  1   force =     0.00101407   -0.00959117    0.00000000
     atom   12 type  1   force =    -0.00157866   -0.00188715    0.00000000
     atom   13 type  1   force =    -0.00209957   -0.00110078    0.00000000
     atom   14 type  1   force =    -0.00000721    0.01497667    0.00000000
     atom   15 type  1   force =    -0.00768791    0.00581376    0.00000000
     atom   16 type  1   force =    -0.01304221   -0.00737558    0.00000000
     atom   17 type  1   force =    -0.00874007    0.00377136    0.00000000
     atom   18 type  1   force =    -0.00001929    0.00216174    0.00000000
     atom   19 type  1   force =    -0.00100292   -0.00961261    0.00000000
     atom   20 type  1   force =    -0.00189409   -0.00130282    0.00000000
     atom   21 type  1   force =     0.00001521   -0.00083805    0.00000000
     atom   22 type  1   force =     0.00184625   -0.00108678    0.00000000
     atom   23 type  1   force =    -0.00075351    0.00065857    0.00000000
     atom   24 type  1   force =     0.00071185    0.00237939    0.00000000
     atom   25 type  1   force =     0.00001655    0.00250322    0.00000000
     atom   26 type  1   force =     0.00225809   -0.00057019    0.00000000
     atom   27 type  1   force =    -0.00221047   -0.00140321    0.00000000
     atom   28 type  1   force =     0.00181600   -0.00129619    0.00000000
     atom   29 type  1   force =     0.00216880   -0.00113048    0.00000000
     atom   30 type  1   force =    -0.00003439    0.00205057    0.00000000
     atom   31 type  1   force =     0.00075042    0.00063230    0.00000000

     Total force =     0.036507     Total SCF correction =     0.000614


     Computing stress (Cartesian axis) and pressure

          total   stress  (Ry/bohr**3)                   (kbar)     P=   -0.70
  -0.00000722  -0.00000001   0.00000000         -1.06     -0.00      0.00
  -0.00000001  -0.00000714   0.00000000         -0.00     -1.05      0.00
   0.00000000   0.00000000   0.00000000          0.00      0.00      0.00


     number of scf cycles    =   6
     number of bfgs steps    =   5

     enthalpy old            =    -140.9429394681 Ry
     enthalpy new            =    -140.9465903647 Ry

     CASE: enthalpy_new < enthalpy_old

     new trust radius        =       0.1149445817 bohr
     new conv_thr            =       0.0000010000 Ry

     new unit-cell volume =  36894.66176 a.u.^3 (  5467.22474 Ang^3 )
     density =      0.28230 g/cm^3

CELL_PARAMETERS (alat= 33.68096681)
   0.996835082   0.000001523   0.000000000
  -0.498416222   0.863260507   0.000000000
   0.000000000   0.000000000   1.122132950

ATOMIC_POSITIONS (angstrom)
Al       0.031538611   2.534722920   0.000000000
Al       2.217740305   1.271089765   0.000000000
Al      -2.220681501   6.411011928   0.000000000
Al      -0.010912600   5.135549754   0.000000000
Al      -4.451236572  10.299749450   0.000000000
Al      -2.220772759   8.962500444   0.000000000
Al      -6.656620776  14.107319622   0.000000000
Al      -4.452953707  12.824331698   0.000000000
Al       4.585465793   2.480881756   0.000000000
Al       2.261791220   6.398541749   0.000000000
Al       4.449967889   5.137511483   0.000000000
Al       0.009675698  10.299624582   0.000000000
Al       2.198619512   8.962312451   0.000000000
Al      -2.220781777  14.270093094   0.000000000
Al       0.011288092  12.824367754   0.000000000
Al       8.739879708   2.480914163   0.000000000
Al      11.107317523   1.271201236   0.000000000
Al       6.662657270   6.404220360   0.000000000
Al       8.875216553   5.137534484   0.000000000
Al       4.433320717  10.253138030   0.000000000
Al       6.662692526   8.984579210   0.000000000
Al       2.215031291  14.107426930   0.000000000
Al       4.449887326  12.816678749   0.000000000
Al      13.293722485   2.534723622   0.000000000
Al      15.545923852   1.307848972   0.000000000
Al      11.063316424   6.398549880   0.000000000
Al      13.336095237   5.135522600   0.000000000
Al       8.892080752  10.253197104   0.000000000
Al      11.126350547   8.962455900   0.000000000
Al       6.662696654  14.113924258   0.000000000
Al       8.875460610  12.816618970   0.000000000



     Writing output data file 10al_planar_2x2_vcr.save/
     NEW-OLD atomic charge density approx. for the potential

     negative rho (up, down):  2.659E-06 0.000E+00
     extrapolated charge   92.78073, renormalised to   93.00000

     total cpu time spent up to now is     2046.0 secs

     Self-consistent Calculation

     iteration #  1     ecut=    80.00 Ry     beta= 0.40
     Davidson diagonalization with overlap
     ethr =  1.00E-06,  avg # of iterations =  9.0

     negative rho (up, down):  1.427E-06 0.000E+00

     total cpu time spent up to now is     2089.0 secs

     total energy              =    -140.95078770 Ry
     Harris-Foulkes estimate   =    -142.04097343 Ry
     estimated scf accuracy    <       0.00174280 Ry

     iteration #  2     ecut=    80.00 Ry     beta= 0.40
     Davidson diagonalization with overlap
     ethr =  1.87E-06,  avg # of iterations =  6.0

     negative rho (up, down):  1.284E-06 0.000E+00

     total cpu time spent up to now is     2120.2 secs

     total energy              =    -140.95080650 Ry
     Harris-Foulkes estimate   =    -140.95340284 Ry
     estimated scf accuracy    <       0.01943741 Ry

     iteration #  3     ecut=    80.00 Ry     beta= 0.40
     Davidson diagonalization with overlap
     ethr =  1.87E-06,  avg # of iterations =  4.0

     negative rho (up, down):  9.215E-07 0.000E+00

     total cpu time spent up to now is     2146.1 secs

     total energy              =    -140.95195280 Ry
     Harris-Foulkes estimate   =    -140.95207594 Ry
     estimated scf accuracy    <       0.00055972 Ry

     iteration #  4     ecut=    80.00 Ry     beta= 0.40
     Davidson diagonalization with overlap
     ethr =  6.02E-07,  avg # of iterations =  1.0

     negative rho (up, down):  6.007E-07 0.000E+00

     total cpu time spent up to now is     2166.7 secs

     total energy              =    -140.95195421 Ry
     Harris-Foulkes estimate   =    -140.95200584 Ry
     estimated scf accuracy    <       0.00029127 Ry

     iteration #  5     ecut=    80.00 Ry     beta= 0.40
     Davidson diagonalization with overlap
     ethr =  3.13E-07,  avg # of iterations =  4.0

     negative rho (up, down):  3.455E-07 0.000E+00

     total cpu time spent up to now is     2188.6 secs

     total energy              =    -140.95192212 Ry
     Harris-Foulkes estimate   =    -140.95201371 Ry
     estimated scf accuracy    <       0.00050505 Ry

     iteration #  6     ecut=    80.00 Ry     beta= 0.40
     Davidson diagonalization with overlap
     ethr =  3.13E-07,  avg # of iterations =  4.0

     negative rho (up, down):  7.369E-08 0.000E+00

     total cpu time spent up to now is     2210.7 secs

     total energy              =    -140.95196696 Ry
     Harris-Foulkes estimate   =    -140.95198518 Ry
     estimated scf accuracy    <       0.00011459 Ry

     iteration #  7     ecut=    80.00 Ry     beta= 0.40
     Davidson diagonalization with overlap
     ethr =  1.23E-07,  avg # of iterations =  3.0

     negative rho (up, down):  5.612E-08 0.000E+00

     total cpu time spent up to now is     2232.0 secs

     total energy              =    -140.95197870 Ry
     Harris-Foulkes estimate   =    -140.95198210 Ry
     estimated scf accuracy    <       0.00001904 Ry

     iteration #  8     ecut=    80.00 Ry     beta= 0.40
     Davidson diagonalization with overlap
     ethr =  2.05E-08,  avg # of iterations =  5.0

     negative rho (up, down):  2.916E-08 0.000E+00

     total cpu time spent up to now is     2257.5 secs

     total energy              =    -140.95198167 Ry
     Harris-Foulkes estimate   =    -140.95198475 Ry
     estimated scf accuracy    <       0.00001752 Ry

     iteration #  9     ecut=    80.00 Ry     beta= 0.40
     Davidson diagonalization with overlap
     ethr =  1.88E-08,  avg # of iterations =  2.0

     total cpu time spent up to now is     2278.9 secs

     total energy              =    -140.95198216 Ry
     Harris-Foulkes estimate   =    -140.95198287 Ry
     estimated scf accuracy    <       0.00000388 Ry

     iteration # 10     ecut=    80.00 Ry     beta= 0.40
     Davidson diagonalization with overlap
     ethr =  4.17E-09,  avg # of iterations =  4.0

     total cpu time spent up to now is     2302.6 secs

     total energy              =    -140.95198239 Ry
     Harris-Foulkes estimate   =    -140.95198289 Ry
     estimated scf accuracy    <       0.00000370 Ry

     iteration # 11     ecut=    80.00 Ry     beta= 0.40
     Davidson diagonalization with overlap
     ethr =  3.97E-09,  avg # of iterations =  1.0

     total cpu time spent up to now is     2323.4 secs

     total energy              =    -140.95198243 Ry
     Harris-Foulkes estimate   =    -140.95198273 Ry
     estimated scf accuracy    <       0.00000143 Ry

     iteration # 12     ecut=    80.00 Ry     beta= 0.40
     Davidson diagonalization with overlap
     ethr =  1.54E-09,  avg # of iterations =  4.0

     total cpu time spent up to now is     2346.1 secs

     End of self-consistent calculation

          k = 0.0000 0.0000 0.0000 (448403 PWs)   bands (ev):

    -9.9647  -9.4614  -9.4610  -9.4570  -9.4055  -9.4051  -9.1260  -8.4191
    -8.4029  -8.4026  -8.3520  -8.3511  -8.3264  -8.1937  -8.1933  -7.5796
    -6.9366  -6.9363  -6.8296  -6.4765  -6.4760  -6.4252  -6.3900  -6.3896
    -5.5681  -4.8084  -4.7920  -4.7914  -4.7300  -4.7298  -4.4570  -4.4511
    -4.4490  -4.4489  -4.1762  -4.1759  -3.9824  -3.4776  -3.4773  -3.4724
    -3.4440  -3.4438  -3.4234  -3.3637  -3.2518  -3.2516  -3.2121  -2.9756
    -2.9303  -2.9302  -2.8855  -2.4776  -2.4769  -2.4581  -2.4388  -2.4386

     the Fermi energy is    -3.0875 ev

!    total energy              =    -140.95198235 Ry
     Harris-Foulkes estimate   =    -140.95198266 Ry
     estimated scf accuracy    <       0.00000034 Ry

     The total energy is the sum of the following terms:

     one-electron contribution =    -504.03781954 Ry
     hartree contribution      =     260.74725912 Ry
     xc contribution           =     -61.30918239 Ry
     ewald contribution        =     163.72019941 Ry
     smearing contrib. (-TS)   =      -0.07243895 Ry

     convergence has been achieved in  12 iterations

     Forces acting on atoms (cartesian axes, Ry/au):

     atom    1 type  1   force =    -0.00274101    0.00520507    0.00000000
     atom    2 type  1   force =     0.01402172    0.00615166    0.00000000
     atom    3 type  1   force =    -0.00004084   -0.00003796    0.00000000
     atom    4 type  1   force =     0.00408411   -0.00250796    0.00000000
     atom    5 type  1   force =     0.00301120   -0.00508615    0.00000000
     atom    6 type  1   force =    -0.00001286    0.00478373    0.00000000
     atom    7 type  1   force =    -0.00277905   -0.00162142    0.00000000
     atom    8 type  1   force =     0.01239596    0.00924743    0.00000000
     atom    9 type  1   force =     0.01346513   -0.00762368    0.00000000
     atom   10 type  1   force =    -0.00565637   -0.00028165    0.00000000
     atom   11 type  1   force =     0.00158160   -0.01533065    0.00000000
     atom   12 type  1   force =    -0.00302852   -0.00501235    0.00000000
     atom   13 type  1   force =    -0.00185096   -0.00097354    0.00000000
     atom   14 type  1   force =    -0.00000832    0.01547128    0.00000000
     atom   15 type  1   force =    -0.01235408    0.00921091    0.00000000
     atom   16 type  1   force =    -0.01347795   -0.00760179    0.00000000
     atom   17 type  1   force =    -0.01396487    0.00614359    0.00000000
     atom   18 type  1   force =    -0.00001863    0.00320442    0.00000000
     atom   19 type  1   force =    -0.00157338   -0.01535919    0.00000000
     atom   20 type  1   force =    -0.00269676   -0.00179622    0.00000000
     atom   21 type  1   force =     0.00000645   -0.00158768    0.00000000
     atom   22 type  1   force =     0.00277712   -0.00163060    0.00000000
     atom   23 type  1   force =    -0.00142511    0.00109007    0.00000000
     atom   24 type  1   force =     0.00267294    0.00520270    0.00000000
     atom   25 type  1   force =     0.00002440    0.00220016    0.00000000
     atom   26 type  1   force =     0.00568339   -0.00026726    0.00000000
     atom   27 type  1   force =    -0.00406132   -0.00248426    0.00000000
     atom   28 type  1   force =     0.00262596   -0.00177617    0.00000000
     atom   29 type  1   force =     0.00194331   -0.00101293    0.00000000
     atom   30 type  1   force =    -0.00000935    0.00299358    0.00000000
     atom   31 type  1   force =     0.00140608    0.00108685    0.00000000

     Total force =     0.049924     Total SCF correction =     0.000455


     Computing stress (Cartesian axis) and pressure

          total   stress  (Ry/bohr**3)                   (kbar)     P=   -0.77
  -0.00000791  -0.00000002   0.00000000         -1.16     -0.00      0.00
  -0.00000002  -0.00000782   0.00000000         -0.00     -1.15      0.00
   0.00000000   0.00000000   0.00000001          0.00      0.00      0.00


     number of scf cycles    =   7
     number of bfgs steps    =   6

     enthalpy old            =    -140.9465903647 Ry
     enthalpy new            =    -140.9519823522 Ry

     CASE: enthalpy_new < enthalpy_old

     new trust radius        =       0.1722140597 bohr
     new conv_thr            =       0.0000010000 Ry

     new unit-cell volume =  36764.04974 a.u.^3 (  5447.87003 Ang^3 )
     density =      0.28330 g/cm^3

CELL_PARAMETERS (alat= 33.68096681)
   0.995074048   0.000001642   0.000000000
  -0.497535603   0.861726737   0.000000000
[...]

     Threshold (ethr) on eigenvalues was too large:
     Diagonalizing with lowered threshold

     Davidson diagonalization with overlap
     ethr =  1.97E-10,  avg # of iterations = 11.0

     negative rho (up, down):  4.760E-08 0.000E+00

     total cpu time spent up to now is    99660.3 secs

     total energy              =    -142.09333185 Ry
     Harris-Foulkes estimate   =    -142.09926743 Ry
     estimated scf accuracy    <       0.00000121 Ry

     iteration #  2     ecut=    80.00 Ry     beta= 0.40
     Davidson diagonalization with overlap
     ethr =  1.30E-09,  avg # of iterations =  5.0

     negative rho (up, down):  3.812E-08 0.000E+00

     total cpu time spent up to now is    99687.9 secs

     total energy              =    -142.09333177 Ry
     Harris-Foulkes estimate   =    -142.09333251 Ry
     estimated scf accuracy    <       0.00000294 Ry

     iteration #  3     ecut=    80.00 Ry     beta= 0.40
     Davidson diagonalization with overlap
     ethr =  1.30E-09,  avg # of iterations =  5.0

     negative rho (up, down):  2.281E-08 0.000E+00

     total cpu time spent up to now is    99713.8 secs

     total energy              =    -142.09333215 Ry
     Harris-Foulkes estimate   =    -142.09333226 Ry
     estimated scf accuracy    <       0.00000054 Ry

     iteration #  4     ecut=    80.00 Ry     beta= 0.40
     Davidson diagonalization with overlap
     ethr =  5.84E-10,  avg # of iterations =  4.0

     negative rho (up, down):  1.292E-08 0.000E+00

     total cpu time spent up to now is    99735.8 secs

     total energy              =    -142.09333220 Ry
     Harris-Foulkes estimate   =    -142.09333221 Ry
     estimated scf accuracy    <       0.00000004 Ry

     iteration #  5     ecut=    80.00 Ry     beta= 0.40
     Davidson diagonalization with overlap
     ethr =  4.49E-11,  avg # of iterations =  6.0

     total cpu time spent up to now is    99764.9 secs

     End of self-consistent calculation

          k = 0.0000 0.0000 0.0000 (448403 PWs)   bands (ev):

   -11.5543 -10.8787 -10.8277 -10.6834 -10.6165 -10.4700 -10.3679  -9.2073
    -9.1683  -8.9547  -8.9371  -8.8273  -8.6521  -8.3494  -8.1756  -8.1013
    -8.0869  -7.9194  -7.8453  -6.1234  -6.1179  -6.0760  -5.9734  -5.7474
    -5.6691  -5.6211  -5.5985  -5.5273  -5.4440  -5.3632  -4.9452  -4.8275
    -4.3072  -4.2658  -4.1431  -4.1417  -4.1021  -4.0390  -4.0057  -3.9760
    -3.8624  -3.7992  -3.6569  -3.5228  -2.5227  -2.4916  -2.3360  -2.3219
    -2.2526  -2.1554  -2.1213  -1.9301  -1.7946  -1.7292  -1.6790  -1.6032

     the Fermi energy is    -2.4361 ev

!    total energy              =    -142.09333220 Ry
     Harris-Foulkes estimate   =    -142.09333222 Ry
     estimated scf accuracy    <       0.00000003 Ry

     The total energy is the sum of the following terms:

     one-electron contribution =    -684.76904089 Ry
     hartree contribution      =     351.19797862 Ry
     xc contribution           =     -63.59710437 Ry
     ewald contribution        =     255.11658500 Ry
     smearing contrib. (-TS)   =      -0.04175055 Ry

     convergence has been achieved in   5 iterations

     Forces acting on atoms (cartesian axes, Ry/au):

     atom    1 type  1   force =     0.00060159   -0.00136556    0.00000000
     atom    2 type  1   force =     0.00002512   -0.00046734    0.00000000
     atom    3 type  1   force =    -0.00049593   -0.00003623    0.00000000
     atom    4 type  1   force =     0.00057622    0.00032495    0.00000000
     atom    5 type  1   force =    -0.00067747    0.00002420    0.00000000
     atom    6 type  1   force =     0.00019157    0.00067612    0.00000000
     atom    7 type  1   force =     0.00024829   -0.00046634    0.00000000
     atom    8 type  1   force =     0.00036685    0.00018390    0.00000000
     atom    9 type  1   force =     0.00020738    0.00088676    0.00000000
     atom   10 type  1   force =     0.00040500   -0.00094985    0.00000000
     atom   11 type  1   force =     0.00040057    0.00051129    0.00000000
     atom   12 type  1   force =    -0.00053432    0.00048774    0.00000000
     atom   13 type  1   force =    -0.00012699   -0.00037374    0.00000000
     atom   14 type  1   force =    -0.00035905   -0.00021762    0.00000000
     atom   15 type  1   force =     0.00040542    0.00031904    0.00000000
     atom   16 type  1   force =     0.00043822   -0.00101985    0.00000000
     atom   17 type  1   force =    -0.00064517    0.00038008    0.00000000
     atom   18 type  1   force =    -0.00047003   -0.00080824    0.00000000
     atom   19 type  1   force =     0.00066031    0.00011096    0.00000000
     atom   20 type  1   force =    -0.00000666    0.00077202    0.00000000
     atom   21 type  1   force =     0.00000983    0.00049116    0.00000000
     atom   22 type  1   force =    -0.00020199    0.00077021    0.00000000
     atom   23 type  1   force =    -0.00090187   -0.00017426    0.00000000
     atom   24 type  1   force =    -0.00031459    0.00009477    0.00000000
     atom   25 type  1   force =     0.00019483   -0.00000834    0.00000000
     atom   26 type  1   force =    -0.00069010    0.00020993    0.00000000
     atom   27 type  1   force =     0.00058497    0.00010841    0.00000000
     atom   28 type  1   force =    -0.00033474   -0.00012396    0.00000000
     atom   29 type  1   force =     0.00010911    0.00010542    0.00000000
     atom   30 type  1   force =     0.00032845   -0.00008042    0.00000000
     atom   31 type  1   force =     0.00000521   -0.00036522    0.00000000

     Total force =     0.003850     Total SCF correction =     0.000160


     Computing stress (Cartesian axis) and pressure

          total   stress  (Ry/bohr**3)                   (kbar)     P=   -0.07
   0.00000046  -0.00000162   0.00000000          0.07     -0.24      0.00
  -0.00000162  -0.00000198   0.00000000         -0.24     -0.29      0.00
   0.00000000   0.00000000  -0.00000001          0.00      0.00     -0.00


     number of scf cycles    = 299
     number of bfgs steps    = 245

     enthalpy old            =    -142.0934007865 Ry
     enthalpy new            =    -142.0933321974 Ry

     CASE: enthalpy_new > enthalpy_old

     new trust radius        =       0.0001474021 bohr
     new conv_thr            =       0.0000000280 Ry

     new unit-cell volume =  26797.41319 a.u.^3 (  3970.96689 Ang^3 )
     density =      0.38866 g/cm^3

CELL_PARAMETERS (alat= 33.68096681)
   0.836326148  -0.025082345   0.000000000
  -0.420073532   0.759940201   0.000000000
   0.000000000   0.000000000   1.122132950

ATOMIC_POSITIONS (angstrom)
Al      -0.911094019   0.464681592   0.000000000
Al       1.331286557   1.770245986   0.000000000
Al      -1.836180496   6.532147621   0.000000000
Al       1.307952932   4.262540008   0.000000000
Al      -5.110972790  10.031583574   0.000000000
Al      -2.524689711   9.289683046   0.000000000
Al      -5.802902721  12.703709597   0.000000000
Al      -3.170521359  11.893927121   0.000000000
Al       3.805995355   0.876150188   0.000000000
Al       3.359684138   5.996034347   0.000000000
Al       3.799113306   3.448510170   0.000000000
Al       0.085212198   9.048118272   0.000000000
Al       0.789268015   6.665103412   0.000000000
Al      -1.084819016  13.965690382   0.000000000
Al      -0.571736764  11.484532900   0.000000000
Al       9.019958152   2.517397594   0.000000000
Al       9.034932565  -0.052509926   0.000000000
Al       5.942044755   5.472653020   0.000000000
Al       6.428574763   2.983431460   0.000000000
Al       2.699652891   8.478528045   0.000000000
Al       5.308109401   7.914419620   0.000000000
Al       2.018477499  10.956710866   0.000000000
Al       4.606281543  10.307319139   0.000000000
Al      11.513364548   1.649832132   0.000000000
Al      13.724931940   3.014948909   0.000000000
Al       8.535278104   5.049110911   0.000000000
Al      11.141984388   4.250453367   0.000000000
Al       7.911827795   7.649102810   0.000000000
Al      10.498447224   6.908914538   0.000000000
Al       4.043587262  12.701937838   0.000000000
Al       7.224647833  10.385377191   0.000000000



     Writing output data file 10al_planar_2x2_vcr.save/
     Check: negative starting charge=   -0.000131
     NEW-OLD atomic charge density approx. for the potential
     Check: negative starting charge=   -0.000131

     negative rho (up, down):  9.649E-08 0.000E+00
     extrapolated charge   93.00086, renormalised to   93.00000

     total cpu time spent up to now is    99836.0 secs

     Self-consistent Calculation

     iteration #  1     ecut=    80.00 Ry     beta= 0.40
     Davidson diagonalization with overlap
     ethr =  1.00E-06,  avg # of iterations =  1.0

     Threshold (ethr) on eigenvalues was too large:
     Diagonalizing with lowered threshold

     Davidson diagonalization with overlap
     ethr =  7.63E-10,  avg # of iterations = 10.0

     negative rho (up, down):  4.760E-08 0.000E+00

     total cpu time spent up to now is    99895.7 secs

     total energy              =    -142.09331710 Ry
     Harris-Foulkes estimate   =    -142.08738313 Ry
     estimated scf accuracy    <       0.00000177 Ry

     iteration #  2     ecut=    80.00 Ry     beta= 0.40
     Davidson diagonalization with overlap
     ethr =  1.90E-09,  avg # of iterations =  6.0

     negative rho (up, down):  3.910E-08 0.000E+00

     total cpu time spent up to now is    99925.4 secs

     total energy              =    -142.09331693 Ry
     Harris-Foulkes estimate   =    -142.09331837 Ry
     estimated scf accuracy    <       0.00000629 Ry

     iteration #  3     ecut=    80.00 Ry     beta= 0.40
     Davidson diagonalization with overlap
     ethr =  1.90E-09,  avg # of iterations =  5.0

     negative rho (up, down):  2.383E-08 0.000E+00

     total cpu time spent up to now is    99952.4 secs

     total energy              =    -142.09331766 Ry
     Harris-Foulkes estimate   =    -142.09331776 Ry
     estimated scf accuracy    <       0.00000041 Ry

     iteration #  4     ecut=    80.00 Ry     beta= 0.40
     Davidson diagonalization with overlap
     ethr =  4.46E-10,  avg # of iterations =  4.0

     negative rho (up, down):  1.376E-08 0.000E+00

     total cpu time spent up to now is    99975.2 secs

     total energy              =    -142.09331771 Ry
     Harris-Foulkes estimate   =    -142.09331772 Ry
     estimated scf accuracy    <       0.00000005 Ry

     iteration #  5     ecut=    80.00 Ry     beta= 0.40
     Davidson diagonalization with overlap
     ethr =  5.62E-11,  avg # of iterations =  6.0

     total cpu time spent up to now is   100000.7 secs

     total energy              =    -142.09331771 Ry
     Harris-Foulkes estimate   =    -142.09331772 Ry
     estimated scf accuracy    <       0.00000003 Ry

     iteration #  6     ecut=    80.00 Ry     beta= 0.40
     Davidson diagonalization with overlap
     ethr =  3.06E-11,  avg # of iterations =  4.0

     total cpu time spent up to now is   100024.1 secs

     End of self-consistent calculation

          k = 0.0000 0.0000 0.0000 (448403 PWs)   bands (ev):

   -11.5544 -10.8790 -10.8274 -10.6834 -10.6165 -10.4700 -10.3678  -9.2072
    -9.1686  -8.9547  -8.9371  -8.8271  -8.6521  -8.3496  -8.1757  -8.1010
    -8.0870  -7.9193  -7.8454  -6.1235  -6.1179  -6.0761  -5.9735  -5.7475
    -5.6690  -5.6211  -5.5984  -5.5275  -5.4440  -5.3632  -4.9450  -4.8275
    -4.3071  -4.2661  -4.1431  -4.1419  -4.1019  -4.0393  -4.0057  -3.9760
    -3.8624  -3.7991  -3.6569  -3.5228  -2.5226  -2.4918  -2.3360  -2.3220
    -2.2526  -2.1553  -2.1214  -1.9303  -1.7948  -1.7294  -1.6788  -1.6033

     the Fermi energy is    -2.4361 ev

!    total energy              =    -142.09331771 Ry
     Harris-Foulkes estimate   =    -142.09331772 Ry
     estimated scf accuracy    <          4.9E-09 Ry

     The total energy is the sum of the following terms:

     one-electron contribution =    -684.76282424 Ry
     hartree contribution      =     351.19490758 Ry
     xc contribution           =     -63.59699551 Ry
     ewald contribution        =     255.11334777 Ry
     smearing contrib. (-TS)   =      -0.04175331 Ry

     convergence has been achieved in   6 iterations

     Forces acting on atoms (cartesian axes, Ry/au):

     atom    1 type  1   force =     0.00066584   -0.00134526    0.00000000
     atom    2 type  1   force =     0.00000374   -0.00052092    0.00000000
     atom    3 type  1   force =    -0.00050159   -0.00006658    0.00000000
     atom    4 type  1   force =     0.00075882    0.00038960    0.00000000
     atom    5 type  1   force =    -0.00076731    0.00003012    0.00000000
     atom    6 type  1   force =     0.00029685    0.00071251    0.00000000
     atom    7 type  1   force =     0.00028865   -0.00049042    0.00000000
     atom    8 type  1   force =     0.00035420    0.00019533    0.00000000
     atom    9 type  1   force =     0.00024657    0.00084094    0.00000000
     atom   10 type  1   force =     0.00050587   -0.00136660    0.00000000
     atom   11 type  1   force =     0.00027500    0.00074326    0.00000000
     atom   12 type  1   force =    -0.00067697    0.00064727    0.00000000
     atom   13 type  1   force =    -0.00022403   -0.00048839    0.00000000
     atom   14 type  1   force =    -0.00037535   -0.00016412    0.00000000
     atom   15 type  1   force =     0.00045382    0.00024121    0.00000000
     atom   16 type  1   force =     0.00048841   -0.00123640    0.00000000
     atom   17 type  1   force =    -0.00068179    0.00048003    0.00000000
     atom   18 type  1   force =    -0.00042534   -0.00103673    0.00000000
     atom   19 type  1   force =     0.00069101    0.00012163    0.00000000
     atom   20 type  1   force =     0.00007064    0.00110206    0.00000000
     atom   21 type  1   force =    -0.00003168    0.00079136    0.00000000
     atom   22 type  1   force =    -0.00020562    0.00075636    0.00000000
     atom   23 type  1   force =    -0.00089120   -0.00047129    0.00000000
     atom   24 type  1   force =    -0.00037720    0.00005572    0.00000000
     atom   25 type  1   force =     0.00009886   -0.00004038    0.00000000
     atom   26 type  1   force =    -0.00077494    0.00031076    0.00000000
     atom   27 type  1   force =     0.00064605    0.00012248    0.00000000
     atom   28 type  1   force =    -0.00035574   -0.00010527    0.00000000
     atom   29 type  1   force =     0.00012697    0.00011229    0.00000000
     atom   30 type  1   force =     0.00028574    0.00007486    0.00000000
     atom   31 type  1   force =     0.00003171   -0.00039541    0.00000000

     Total force =     0.004437     Total SCF correction =     0.000059


     Computing stress (Cartesian axis) and pressure

          total   stress  (Ry/bohr**3)                   (kbar)     P=   -0.08
   0.00000045  -0.00000161   0.00000000          0.07     -0.24      0.00
  -0.00000161  -0.00000199   0.00000000         -0.24     -0.29      0.00
   0.00000000   0.00000000  -0.00000000          0.00      0.00     -0.00


     number of scf cycles    = 300
     number of bfgs steps    = 245

     enthalpy old            =    -142.0934007865 Ry
     enthalpy new            =    -142.0933177126 Ry

     CASE: enthalpy_new > enthalpy_old

     new trust radius        =       0.0000016351 bohr

     trust_radius < trust_radius_min

     resetting bfgs history

     new conv_thr            =       0.0000000280 Ry

     new unit-cell volume =  26797.16448 a.u.^3 (  3970.93004 Ang^3 )
     density =      0.38867 g/cm^3

CELL_PARAMETERS (alat= 33.68096681)
   0.836327064  -0.025081643   0.000000000
  -0.420073597   0.759932082   0.000000000
   0.000000000   0.000000000   1.122132950

ATOMIC_POSITIONS (angstrom)
Al      -0.910690719   0.464141832   0.000000000
Al       1.331188675   1.770016720   0.000000000
Al      -1.836292815   6.531969846   0.000000000
Al       1.308509955   4.262499413   0.000000000
Al      -5.111291741  10.031418010   0.000000000
Al      -2.524538798   9.289862496   0.000000000
Al      -5.802594623  12.703329778   0.000000000
Al      -3.170512637  11.893867357   0.000000000
Al       3.806118395   0.876290339   0.000000000
Al       3.359860617   5.995366800   0.000000000
Al       3.799185681   3.448887075   0.000000000
Al       0.084856379   9.048274598   0.000000000
Al       0.788970256   6.664883297   0.000000000
Al      -1.085017383  13.965669758   0.000000000
Al      -0.571571683  11.484577010   0.000000000
Al       9.020232766   2.517000312   0.000000000
Al       9.034648121  -0.052335754   0.000000000
Al       5.941945305   5.472044525   0.000000000
Al       6.428949254   2.983271626   0.000000000
Al       2.699688610   8.478987977   0.000000000
Al       5.308149927   7.914799391   0.000000000
Al       2.018465712  10.956884209   0.000000000
Al       4.606051254  10.306907342   0.000000000
Al      11.513312432   1.649803617   0.000000000
Al      13.724899827   3.014794936   0.000000000
Al       8.535068957   5.049247208   0.000000000
Al      11.142106853   4.250503586   0.000000000
Al       7.911679200   7.649026005   0.000000000
Al      10.498486525   6.908976455   0.000000000
Al       4.043533988  12.702055518   0.000000000
Al       7.224533901  10.385156121   0.000000000



     Writing output data file 10al_planar_2x2_vcr.save/
     Check: negative starting charge=   -0.000131
     NEW-OLD atomic charge density approx. for the potential
     Check: negative starting charge=   -0.000131

     negative rho (up, down):  9.644E-08 0.000E+00
     extrapolated charge   92.99914, renormalised to   93.00000

     Writing output data file 10al_planar_2x2_vcr.save/
 
     init_run     :     25.27s CPU     26.99s WALL (       1 calls)
     electrons    :  70408.40s CPU  77927.76s WALL (     300 calls)
     update_pot   :   4722.70s CPU   4763.41s WALL (     300 calls)
     forces       :   4138.38s CPU   4213.29s WALL (     300 calls)
     stress       :  12823.18s CPU  13000.61s WALL (     300 calls)

     Called by init_run:
     wfcinit      :     12.08s CPU     13.51s WALL (       1 calls)
     potinit      :      5.09s CPU      5.23s WALL (       1 calls)
     hinit0       :      6.20s CPU      6.29s WALL (       1 calls)

     Called by electrons:
     c_bands      :  58740.71s CPU  64795.28s WALL (    2749 calls)
     sum_band     :   7939.51s CPU   8947.81s WALL (    2749 calls)
     v_of_rho     :   3172.24s CPU   3462.02s WALL (    2944 calls)
     mix_rho      :    688.91s CPU    825.15s WALL (    2749 calls)

     Called by c_bands:
     init_us_2    :    792.78s CPU    794.66s WALL (    5499 calls)
     cegterg      :  50882.40s CPU  56926.50s WALL (    2751 calls)

     Called by sum_band:

     Called by *egterg:
     h_psi        :  45216.01s CPU  51149.47s WALL (   17286 calls)
     g_psi        :    148.85s CPU    151.90s WALL (   14534 calls)
     cdiaghg      :    137.98s CPU    138.95s WALL (   16878 calls)

     Called by h_psi:
     h_psi:pot    :  45122.37s CPU  50961.47s WALL (   17286 calls)
     h_psi:calbec :   5659.12s CPU   5670.11s WALL (   17286 calls)
     vloc_psi     :  34316.15s CPU  40136.93s WALL (   17286 calls)
     add_vuspsi   :   5146.89s CPU   5154.29s WALL (   17286 calls)

     General routines
     calbec       :   6563.82s CPU   6576.27s WALL (   18786 calls)
     fft          :   2834.18s CPU   3083.15s WALL (   37348 calls)
     ffts         :    195.35s CPU    214.21s WALL (    2749 calls)
     fftw         :  36900.99s CPU  43519.58s WALL ( 1077196 calls)
 
     Parallel routines
     fft_scatt_xy :   5385.00s CPU   6810.14s WALL ( 1117293 calls)
     fft_scatt_yz :  19070.03s CPU  20445.69s WALL ( 1117293 calls)
 
     PWSCF        :     1d    1h37m CPU        1d    3h48m WALL

 
   This run was terminated on:   1:56:22  27Nov2020            

=------------------------------------------------------------------------------=
   JOB DONE.
=------------------------------------------------------------------------------=
