
     Program PWSCF v.6.3MaX starts on 26Nov2020 at  9: 8:50 

     This program is part of the open-source Quantum ESPRESSO suite
     for quantum simulation of materials; please cite
         "P. Giannozzi et al., J. Phys.:Condens. Matter 21 395502 (2009);
         "P. Giannozzi et al., J. Phys.:Condens. Matter 29 465901 (2017);
          URL http://www.quantum-espresso.org", 
     in publications or presentations arising from this work. More details at
     http://www.quantum-espresso.org/quote

     Parallel version (MPI), running on     8 processors

     MPI processes distributed on     2 nodes
     R & G space division:  proc/nbgrp/npool/nimage =       8
     Waiting for input...
     Reading input from standard input

     Current dimensions of program PWSCF are:
     Max number of different atomic species (ntypx) = 10
     Max number of k-points (npk) =  40000
     Max angular momentum in pseudopotentials (lmaxx) =  3

     Subspace diagonalization in iterative solution of the eigenvalue problem:
     a serial algorithm will be used

     Message from routine find_sym:
     Not a group! Trying with lower acceptance parameter...
     Message from routine find_sym:
     Symmetry operations form a group
 
     Parallelization info
     --------------------
     sticks:   dense  smooth     PW     G-vecs:    dense   smooth      PW
     Min        3123    3123    778               448599   448599   56048
     Max        3124    3124    779               448604   448604   56052
     Sum       24985   24985   6229              3588803  3588803  448403
 


     bravais-lattice index     =            4
     lattice parameter (alat)  =      33.6810  a.u.
     unit-cell volume          =   37130.3117 (a.u.)^3
     number of atoms/cell      =           31
     number of atomic types    =            1
     number of electrons       =        93.00
     number of Kohn-Sham states=           56
     kinetic-energy cutoff     =      80.0000  Ry
     charge density cutoff     =     320.0000  Ry
     convergence threshold     =      1.0E-06
     mixing beta               =       0.4000
     number of iterations used =            8  plain     mixing
     Exchange-correlation      = PBE ( 1  4  3  4 0 0)
     nstep                     =          300


     celldm(1)=  33.680967  celldm(2)=   0.000000  celldm(3)=   1.122133
     celldm(4)=   0.000000  celldm(5)=   0.000000  celldm(6)=   0.000000

     crystal axes: (cart. coord. in units of alat)
               a(1) = (   1.000000   0.000000   0.000000 )  
               a(2) = (  -0.500000   0.866025   0.000000 )  
               a(3) = (   0.000000   0.000000   1.122133 )  

     reciprocal axes: (cart. coord. in units 2 pi/alat)
               b(1) = (  1.000000  0.577350  0.000000 )  
               b(2) = (  0.000000  1.154701  0.000000 )  
               b(3) = (  0.000000  0.000000  0.891160 )  


     PseudoPot. # 1 for Al read from file:
     ./Al.upf
     MD5 check sum: 4974d48a734c9d7d1eb6780a1419d19d
     Pseudo is Norm-conserving + core correction, Zval =  3.0
     Generated using ONCVPSP code by D. R. Hamann
     Using radial grid of 1876 points,  6 beta functions with: 
                l(1) =   0
                l(2) =   0
                l(3) =   1
                l(4) =   1
                l(5) =   2
                l(6) =   2

     atomic species   valence    mass     pseudopotential
        Al             3.00    29.98200     Al( 1.00)

      2 Sym. Ops. (no inversion) found



   Cartesian axes

     site n.     atom                  positions (alat units)
         1           Al  tau(   1) = (  -0.0000000   0.1443393   0.0000000  )
         2           Al  tau(   2) = (   0.1250015   0.0721696   0.0000000  )
         3           Al  tau(   3) = (  -0.1249997   0.3608472   0.0000000  )
         4           Al  tau(   4) = (   0.0000018   0.2886775   0.0000000  )
         5           Al  tau(   5) = (  -0.2499994   0.5773550   0.0000000  )
         6           Al  tau(   6) = (  -0.1249979   0.5051854   0.0000000  )
         7           Al  tau(   7) = (  -0.3749991   0.7938629   0.0000000  )
         8           Al  tau(   8) = (  -0.2499976   0.7216932   0.0000000  )
         9           Al  tau(   9) = (   0.2500011   0.1443403   0.0000000  )
        10           Al  tau(  10) = (   0.3750027   0.0721706   0.0000000  )
        11           Al  tau(  11) = (   0.1250014   0.3608482   0.0000000  )
        12           Al  tau(  12) = (   0.2500030   0.2886785   0.0000000  )
        13           Al  tau(  13) = (   0.0000017   0.5773560   0.0000000  )
        14           Al  tau(  14) = (   0.1250033   0.5051864   0.0000000  )
        15           Al  tau(  15) = (  -0.1249980   0.7938639   0.0000000  )
        16           Al  tau(  16) = (   0.0000036   0.7216942   0.0000000  )
        17           Al  tau(  17) = (   0.5000023   0.1443413   0.0000000  )
        18           Al  tau(  18) = (   0.6250038   0.0721717   0.0000000  )
        19           Al  tau(  19) = (   0.3750026   0.3608492   0.0000000  )
        20           Al  tau(  20) = (   0.5000041   0.2886795   0.0000000  )
        21           Al  tau(  21) = (   0.2500029   0.5773571   0.0000000  )
        22           Al  tau(  22) = (   0.3750044   0.5051874   0.0000000  )
        23           Al  tau(  23) = (   0.1250032   0.7938649   0.0000000  )
        24           Al  tau(  24) = (   0.2500047   0.7216953   0.0000000  )
        25           Al  tau(  25) = (   0.8750050   0.0721727   0.0000000  )
        26           Al  tau(  26) = (   0.6250038   0.3608502   0.0000000  )
        27           Al  tau(  27) = (   0.7500053   0.2886805   0.0000000  )
        28           Al  tau(  28) = (   0.5000041   0.5773581   0.0000000  )
        29           Al  tau(  29) = (   0.6250056   0.5051884   0.0000000  )
        30           Al  tau(  30) = (   0.3750044   0.7938660   0.0000000  )
        31           Al  tau(  31) = (   0.5000059   0.7216963   0.0000000  )

     number of k points=     1  Methfessel-Paxton smearing, width (Ry)=  0.0500
                       cart. coord. in units 2pi/alat
        k(    1) = (   0.0000000   0.0000000   0.0000000), wk =   2.0000000

     Dense  grid:  3588803 G-vectors     FFT dimensions: ( 192, 192, 216)

     Estimated max dynamical RAM per process >       1.15 GB

     Estimated total dynamical RAM >       9.23 GB

     Initial potential from superposition of free atoms

     starting charge   92.92414, renormalised to   93.00000

     negative rho (up, down):  9.278E-05 0.000E+00
     Starting wfcs are  124 randomized atomic wfcs

     total cpu time spent up to now is       33.0 secs

     Self-consistent Calculation

     iteration #  1     ecut=    80.00 Ry     beta= 0.40
     Davidson diagonalization with overlap
     ethr =  1.00E-02,  avg # of iterations =  2.0

     total cpu time spent up to now is       66.9 secs

     total energy              =    -140.64257954 Ry
     Harris-Foulkes estimate   =    -141.23596621 Ry
     estimated scf accuracy    <       1.54782652 Ry

     iteration #  2     ecut=    80.00 Ry     beta= 0.40
     Davidson diagonalization with overlap
     ethr =  1.66E-03,  avg # of iterations =  5.0

     total cpu time spent up to now is      103.1 secs

     total energy              =    -140.21998076 Ry
     Harris-Foulkes estimate   =    -141.45744527 Ry
     estimated scf accuracy    <       6.73594931 Ry

     iteration #  3     ecut=    80.00 Ry     beta= 0.40
     Davidson diagonalization with overlap
     ethr =  1.66E-03,  avg # of iterations =  5.0

     total cpu time spent up to now is      137.3 secs

     total energy              =    -140.82776458 Ry
     Harris-Foulkes estimate   =    -141.02323446 Ry
     estimated scf accuracy    <       1.17503745 Ry

     iteration #  4     ecut=    80.00 Ry     beta= 0.40
     Davidson diagonalization with overlap
     ethr =  1.26E-03,  avg # of iterations =  1.0

     total cpu time spent up to now is      163.7 secs

     total energy              =    -140.90086282 Ry
     Harris-Foulkes estimate   =    -140.94391078 Ry
     estimated scf accuracy    <       0.14771791 Ry

     iteration #  5     ecut=    80.00 Ry     beta= 0.40
     Davidson diagonalization with overlap
     ethr =  1.59E-04,  avg # of iterations =  4.0

     total cpu time spent up to now is      192.5 secs

     total energy              =    -140.91343715 Ry
     Harris-Foulkes estimate   =    -140.95569334 Ry
     estimated scf accuracy    <       0.30400323 Ry

     iteration #  6     ecut=    80.00 Ry     beta= 0.40
     Davidson diagonalization with overlap
     ethr =  1.59E-04,  avg # of iterations =  3.0

     total cpu time spent up to now is      219.0 secs

     total energy              =    -140.93237096 Ry
     Harris-Foulkes estimate   =    -140.93469115 Ry
     estimated scf accuracy    <       0.01002046 Ry

     iteration #  7     ecut=    80.00 Ry     beta= 0.40
     Davidson diagonalization with overlap
     ethr =  1.08E-05,  avg # of iterations = 11.0

     total cpu time spent up to now is      264.5 secs

     total energy              =    -140.93552174 Ry
     Harris-Foulkes estimate   =    -140.93687078 Ry
     estimated scf accuracy    <       0.00693552 Ry

     iteration #  8     ecut=    80.00 Ry     beta= 0.40
     Davidson diagonalization with overlap
     ethr =  7.46E-06,  avg # of iterations =  3.0

     total cpu time spent up to now is      297.4 secs

     total energy              =    -140.93561562 Ry
     Harris-Foulkes estimate   =    -140.93670469 Ry
     estimated scf accuracy    <       0.00620348 Ry

     iteration #  9     ecut=    80.00 Ry     beta= 0.40
     Davidson diagonalization with overlap
     ethr =  6.67E-06,  avg # of iterations =  1.0

     total cpu time spent up to now is      322.1 secs

     total energy              =    -140.93587043 Ry
     Harris-Foulkes estimate   =    -140.93616500 Ry
     estimated scf accuracy    <       0.00174578 Ry

     iteration # 10     ecut=    80.00 Ry     beta= 0.40
     Davidson diagonalization with overlap
     ethr =  1.88E-06,  avg # of iterations =  4.0

     total cpu time spent up to now is      349.3 secs

     total energy              =    -140.93600179 Ry
     Harris-Foulkes estimate   =    -140.93609653 Ry
     estimated scf accuracy    <       0.00041192 Ry

     iteration # 11     ecut=    80.00 Ry     beta= 0.40
     Davidson diagonalization with overlap
     ethr =  4.43E-07,  avg # of iterations =  5.0

     total cpu time spent up to now is      383.3 secs

     total energy              =    -140.93605335 Ry
     Harris-Foulkes estimate   =    -140.93614929 Ry
     estimated scf accuracy    <       0.00061668 Ry

     iteration # 12     ecut=    80.00 Ry     beta= 0.40
     Davidson diagonalization with overlap
     ethr =  4.43E-07,  avg # of iterations =  3.0

     total cpu time spent up to now is      410.7 secs

     total energy              =    -140.93609724 Ry
     Harris-Foulkes estimate   =    -140.93610831 Ry
     estimated scf accuracy    <       0.00005367 Ry

     iteration # 13     ecut=    80.00 Ry     beta= 0.40
     Davidson diagonalization with overlap
     ethr =  5.77E-08,  avg # of iterations =  5.0

     total cpu time spent up to now is      441.4 secs

     total energy              =    -140.93610697 Ry
     Harris-Foulkes estimate   =    -140.93611173 Ry
     estimated scf accuracy    <       0.00002673 Ry

     iteration # 14     ecut=    80.00 Ry     beta= 0.40
     Davidson diagonalization with overlap
     ethr =  2.87E-08,  avg # of iterations =  3.0

     total cpu time spent up to now is      466.7 secs

     total energy              =    -140.93610758 Ry
     Harris-Foulkes estimate   =    -140.93610947 Ry
     estimated scf accuracy    <       0.00000869 Ry

     iteration # 15     ecut=    80.00 Ry     beta= 0.40
     Davidson diagonalization with overlap
     ethr =  9.35E-09,  avg # of iterations =  4.0

     total cpu time spent up to now is      493.6 secs

     total energy              =    -140.93610728 Ry
     Harris-Foulkes estimate   =    -140.93611061 Ry
     estimated scf accuracy    <       0.00002500 Ry

     iteration # 16     ecut=    80.00 Ry     beta= 0.40
     Davidson diagonalization with overlap
     ethr =  9.35E-09,  avg # of iterations =  3.0

     total cpu time spent up to now is      518.9 secs

     total energy              =    -140.93610864 Ry
     Harris-Foulkes estimate   =    -140.93610902 Ry
     estimated scf accuracy    <       0.00000196 Ry

     iteration # 17     ecut=    80.00 Ry     beta= 0.40
     Davidson diagonalization with overlap
     ethr =  2.11E-09,  avg # of iterations =  4.0

     total cpu time spent up to now is      547.2 secs

     total energy              =    -140.93610859 Ry
     Harris-Foulkes estimate   =    -140.93610888 Ry
     estimated scf accuracy    <       0.00000139 Ry

     iteration # 18     ecut=    80.00 Ry     beta= 0.40
     Davidson diagonalization with overlap
     ethr =  1.49E-09,  avg # of iterations =  3.0

     total cpu time spent up to now is      572.1 secs

     total energy              =    -140.93610854 Ry
     Harris-Foulkes estimate   =    -140.93610880 Ry
     estimated scf accuracy    <       0.00000175 Ry

     iteration # 19     ecut=    80.00 Ry     beta= 0.40
     Davidson diagonalization with overlap
     ethr =  1.49E-09,  avg # of iterations =  1.0

     total cpu time spent up to now is      595.2 secs

     End of self-consistent calculation

          k = 0.0000 0.0000 0.0000 (448403 PWs)   bands (ev):

    -9.9529  -9.4482  -9.4329  -9.4329  -9.4259  -9.4258  -9.1459  -8.4048
    -8.4048  -8.3881  -8.3880  -8.3797  -8.3033  -8.2570  -8.2569  -7.5864
    -6.9325  -6.9323  -6.8233  -6.4866  -6.4772  -6.4772  -6.3700  -6.3700
    -5.4640  -4.8435  -4.8434  -4.8369  -4.7356  -4.7355  -4.4780  -4.4680
    -4.4428  -4.4428  -4.1225  -4.1224  -3.9778  -3.4711  -3.4687  -3.4687
    -3.4576  -3.4576  -3.4017  -3.2744  -3.2744  -3.2224  -3.2074  -2.9743
    -2.9652  -2.9652  -2.9389  -2.5198  -2.5197  -2.4494  -2.4488  -2.4314

     the Fermi energy is    -3.0910 ev

!    total energy              =    -140.93610851 Ry
     Harris-Foulkes estimate   =    -140.93610862 Ry
     estimated scf accuracy    <       0.00000011 Ry

     The total energy is the sum of the following terms:

     one-electron contribution =    -502.03579093 Ry
     hartree contribution      =     259.76294994 Ry
     xc contribution           =     -61.33571610 Ry
     ewald contribution        =     162.75344938 Ry
     smearing contrib. (-TS)   =      -0.08100081 Ry

     convergence has been achieved in  19 iterations

     Forces acting on atoms (cartesian axes, Ry/au):

     atom    1 type  1   force =     0.00254357    0.00221962    0.00000000
     atom    2 type  1   force =    -0.00369410    0.00398816    0.00000000
     atom    3 type  1   force =     0.00318860    0.00111614    0.00000000
     atom    4 type  1   force =    -0.00114393   -0.00066783    0.00000000
     atom    5 type  1   force =     0.00000603    0.00216761    0.00000000
     atom    6 type  1   force =     0.00158063   -0.00519975    0.00000000
     atom    7 type  1   force =     0.00188721   -0.00110210    0.00000000
     atom    8 type  1   force =    -0.00000848   -0.00000252    0.00000000
     atom    9 type  1   force =    -0.00000982   -0.00233562    0.00000000
     atom   10 type  1   force =     0.00370133    0.00397347    0.00000000
     atom   11 type  1   force =     0.00114352    0.00066511    0.00000000
     atom   12 type  1   force =    -0.00002913   -0.00052057    0.00000000
     atom   13 type  1   force =    -0.00201947    0.00114898    0.00000000
     atom   14 type  1   force =    -0.00046820    0.00023898    0.00000000
     atom   15 type  1   force =    -0.00185014   -0.00110309    0.00000000
     atom   16 type  1   force =     0.00526144    0.00124894    0.00000000
     atom   17 type  1   force =    -0.00254274    0.00220940    0.00000000
     atom   18 type  1   force =     0.01311714    0.00760501    0.00000000
     atom   19 type  1   force =    -0.00110843    0.00068078    0.00000000
     atom   20 type  1   force =     0.00111283   -0.00066944    0.00000000
     atom   21 type  1   force =     0.00001045   -0.00129497    0.00000000
     atom   22 type  1   force =     0.00046373    0.00025009    0.00000000
     atom   23 type  1   force =     0.00063020   -0.00333391    0.00000000
     atom   24 type  1   force =    -0.00002351    0.00128577    0.00000000
     atom   25 type  1   force =    -0.01310930    0.00760468    0.00000000
     atom   26 type  1   force =    -0.00315511    0.00112839    0.00000000
     atom   27 type  1   force =    -0.00000735   -0.01514690    0.00000000
     atom   28 type  1   force =     0.00200820    0.00114387    0.00000000
     atom   29 type  1   force =    -0.00158955   -0.00520698    0.00000000
     atom   30 type  1   force =    -0.00059327   -0.00333360    0.00000000
     atom   31 type  1   force =    -0.00530235    0.00124227    0.00000000

     Total force =     0.031238     Total SCF correction =     0.000261


     Computing stress (Cartesian axis) and pressure

          total   stress  (Ry/bohr**3)                   (kbar)     P=   -0.57
  -0.00000578   0.00000002   0.00000000         -0.85      0.00      0.00
   0.00000002  -0.00000579   0.00000000          0.00     -0.85      0.00
   0.00000000   0.00000000   0.00000000          0.00      0.00      0.00


     BFGS Geometry Optimization

     number of scf cycles    =   1
     number of bfgs steps    =   0

     enthalpy new            =    -140.9361085112 Ry

     new trust radius        =       0.0151623069 bohr
     new conv_thr            =       0.0000010000 Ry

     new unit-cell volume =  37119.56657 a.u.^3 (  5500.55219 Ang^3 )
     density =      0.28059 g/cm^3

CELL_PARAMETERS (alat= 33.68096681)
   0.999855378   0.000000398   0.000000000
  -0.499927345   0.865899814   0.000000000
   0.000000000   0.000000000   1.122132950

ATOMIC_POSITIONS (angstrom)
Al       0.001346243   2.573389789   0.000000000
Al       2.225650494   1.288218209   0.000000000
Al      -2.225883376   6.431109437   0.000000000
Al      -0.000571116   5.144058222   0.000000000
Al      -4.455138180  10.289969263   0.000000000
Al      -2.226700454   8.999963875   0.000000000
Al      -6.681713752  14.146542756   0.000000000
Al      -4.455112155  12.861017226   0.000000000
Al       4.455171626   2.570999576   0.000000000
Al       6.684739810   1.288230406   0.000000000
Al       2.228210955   6.430890762   0.000000000
Al       4.455195114   5.144156100   0.000000000
Al      -0.001033488  10.289450270   0.000000000
Al       2.227391901   9.002861475   0.000000000
Al      -2.228514799  14.146562195   0.000000000
Al       0.002852552  12.861699344   0.000000000
Al       8.909007848   2.573424312   0.000000000
Al      11.144898109   1.290171822   0.000000000
Al       6.682195836   6.430919019   0.000000000
Al       8.910975715   5.144097299   0.000000000
Al       4.455216930  10.288177144   0.000000000
Al       6.683061368   9.002887320   0.000000000
Al       2.227973939  14.145401833   0.000000000
Al       4.455232666  12.861738795   0.000000000
Al      15.586198068   1.290191609   0.000000000
Al      11.136289323   6.431175814   0.000000000
Al      13.365559410   5.136457230   0.000000000
Al       8.911450332  10.289487498   0.000000000
Al      11.137151365   9.000019948   0.000000000
Al       6.682502987  14.145421961   0.000000000
Al       8.907616016  12.861735744   0.000000000



     Writing output data file 25al_planar_2x2_vcr.save/
     NEW-OLD atomic charge density approx. for the potential

     negative rho (up, down):  2.996E-07 0.000E+00
     extrapolated charge   92.97310, renormalised to   93.00000

     total cpu time spent up to now is      676.2 secs

     Self-consistent Calculation

     iteration #  1     ecut=    80.00 Ry     beta= 0.40
     Davidson diagonalization with overlap
     ethr =  1.00E-06,  avg # of iterations =  4.0

     Threshold (ethr) on eigenvalues was too large:
     Diagonalizing with lowered threshold

     Davidson diagonalization with overlap
     ethr =  5.49E-08,  avg # of iterations =  5.0

     negative rho (up, down):  1.483E-07 0.000E+00

     total cpu time spent up to now is      735.4 secs

     total energy              =    -140.93707724 Ry
     Harris-Foulkes estimate   =    -141.07023687 Ry
     estimated scf accuracy    <       0.00007205 Ry

     iteration #  2     ecut=    80.00 Ry     beta= 0.40
     Davidson diagonalization with overlap
     ethr =  7.75E-08,  avg # of iterations =  5.0

     negative rho (up, down):  1.335E-07 0.000E+00

     total cpu time spent up to now is      767.9 secs

     total energy              =    -140.93705230 Ry
     Harris-Foulkes estimate   =    -140.93717798 Ry
     estimated scf accuracy    <       0.00097914 Ry

     iteration #  3     ecut=    80.00 Ry     beta= 0.40
     Davidson diagonalization with overlap
     ethr =  7.75E-08,  avg # of iterations =  4.0

     negative rho (up, down):  8.807E-08 0.000E+00

     total cpu time spent up to now is      797.1 secs

     total energy              =    -140.93711059 Ry
     Harris-Foulkes estimate   =    -140.93711526 Ry
     estimated scf accuracy    <       0.00001731 Ry

     iteration #  4     ecut=    80.00 Ry     beta= 0.40
     Davidson diagonalization with overlap
     ethr =  1.86E-08,  avg # of iterations =  4.0

     negative rho (up, down):  5.911E-08 0.000E+00

     total cpu time spent up to now is      821.7 secs

     total energy              =    -140.93711166 Ry
     Harris-Foulkes estimate   =    -140.93711395 Ry
     estimated scf accuracy    <       0.00000970 Ry

     iteration #  5     ecut=    80.00 Ry     beta= 0.40
     Davidson diagonalization with overlap
     ethr =  1.04E-08,  avg # of iterations =  4.0

     negative rho (up, down):  3.653E-08 0.000E+00

     total cpu time spent up to now is      849.5 secs

     total energy              =    -140.93711164 Ry
     Harris-Foulkes estimate   =    -140.93711461 Ry
     estimated scf accuracy    <       0.00001982 Ry

     iteration #  6     ecut=    80.00 Ry     beta= 0.40
     Davidson diagonalization with overlap
     ethr =  1.04E-08,  avg # of iterations =  3.0

     total cpu time spent up to now is      872.8 secs

     End of self-consistent calculation

          k = 0.0000 0.0000 0.0000 (448403 PWs)   bands (ev):

    -9.9528  -9.4481  -9.4330  -9.4328  -9.4251  -9.4248  -9.1434  -8.4036
    -8.4035  -8.3841  -8.3840  -8.3823  -8.3045  -8.2540  -8.2540  -7.5847
    -6.9319  -6.9318  -6.8225  -6.4818  -6.4771  -6.4771  -6.3717  -6.3717
    -5.4689  -4.8392  -4.8391  -4.8346  -4.7360  -4.7358  -4.4762  -4.4668
    -4.4427  -4.4426  -4.1247  -4.1247  -3.9776  -3.4708  -3.4673  -3.4672
    -3.4579  -3.4579  -3.3995  -3.2727  -3.2726  -3.2208  -3.2171  -2.9698
    -2.9630  -2.9629  -2.9407  -2.5166  -2.5165  -2.4458  -2.4451  -2.4333

     the Fermi energy is    -3.0904 ev

!    total energy              =    -140.93711302 Ry
     Harris-Foulkes estimate   =    -140.93711334 Ry
     estimated scf accuracy    <       0.00000095 Ry

     The total energy is the sum of the following terms:

     one-electron contribution =    -502.12228001 Ry
     hartree contribution      =     259.80409961 Ry
     xc contribution           =     -61.33334951 Ry
     ewald contribution        =     162.79506307 Ry
     smearing contrib. (-TS)   =      -0.08064619 Ry

     convergence has been achieved in   6 iterations

     Forces acting on atoms (cartesian axes, Ry/au):

     atom    1 type  1   force =     0.00137385    0.00161845    0.00000000
     atom    2 type  1   force =    -0.00324743    0.00324660    0.00000000
     atom    3 type  1   force =     0.00208482    0.00039595    0.00000000
     atom    4 type  1   force =    -0.00082118   -0.00047930    0.00000000
     atom    5 type  1   force =     0.00000301    0.00158614    0.00000000
     atom    6 type  1   force =     0.00117547   -0.00443875    0.00000000
     atom    7 type  1   force =     0.00137740   -0.00080401    0.00000000
     atom    8 type  1   force =    -0.00001013   -0.00000389    0.00000000
     atom    9 type  1   force =    -0.00001443   -0.00227315    0.00000000
     atom   10 type  1   force =     0.00324844    0.00325034    0.00000000
     atom   11 type  1   force =     0.00092092    0.00053401    0.00000000
     atom   12 type  1   force =    -0.00001892   -0.00075810    0.00000000
     atom   13 type  1   force =    -0.00196803    0.00111761    0.00000000
     atom   14 type  1   force =    -0.00066364    0.00036717    0.00000000
     atom   15 type  1   force =    -0.00135950   -0.00081178    0.00000000
     atom   16 type  1   force =     0.00442020    0.00120791    0.00000000
     atom   17 type  1   force =    -0.00136893    0.00160463    0.00000000
     atom   18 type  1   force =     0.01299247    0.00752111    0.00000000
     atom   19 type  1   force =    -0.00090327    0.00054637    0.00000000
     atom   20 type  1   force =     0.00081568   -0.00048101    0.00000000
     atom   21 type  1   force =     0.00000311   -0.00104528    0.00000000
     atom   22 type  1   force =     0.00066522    0.00037053    0.00000000
     atom   23 type  1   force =     0.00069589   -0.00200657    0.00000000
     atom   24 type  1   force =    -0.00000956    0.00093081    0.00000000
     atom   25 type  1   force =    -0.01297408    0.00750380    0.00000000
     atom   26 type  1   force =    -0.00205809    0.00040245    0.00000000
     atom   27 type  1   force =    -0.00001907   -0.01497055    0.00000000
     atom   28 type  1   force =     0.00195922    0.00112218    0.00000000
     atom   29 type  1   force =    -0.00117876   -0.00444953    0.00000000
     atom   30 type  1   force =    -0.00067808   -0.00201518    0.00000000
     atom   31 type  1   force =    -0.00444259    0.00121104    0.00000000

     Total force =     0.029298     Total SCF correction =     0.000555


     Computing stress (Cartesian axis) and pressure

          total   stress  (Ry/bohr**3)                   (kbar)     P=   -0.58
  -0.00000592   0.00000001   0.00000000         -0.87      0.00      0.00
   0.00000001  -0.00000593   0.00000000          0.00     -0.87      0.00
   0.00000000   0.00000000  -0.00000006          0.00      0.00     -0.01


     number of scf cycles    =   2
     number of bfgs steps    =   1

     enthalpy old            =    -140.9361085112 Ry
     enthalpy new            =    -140.9371130234 Ry

     CASE: enthalpy_new < enthalpy_old


     WARNING: bfgs curvature condition failed, Theta= 0.854
     new trust radius        =       0.0227401780 bohr
     new conv_thr            =       0.0000010000 Ry

     new unit-cell volume =  37103.12428 a.u.^3 (  5498.11569 Ang^3 )
     density =      0.28071 g/cm^3

CELL_PARAMETERS (alat= 33.68096681)
   0.999634038   0.000000880   0.000000000
  -0.499816257   0.865707661   0.000000000
   0.000000000   0.000000000   1.122132950

ATOMIC_POSITIONS (angstrom)
Al       0.002805306   2.574297192   0.000000000
Al       2.222427963   1.290754662   0.000000000
Al      -2.223382199   6.430221599   0.000000000
Al      -0.001323776   5.142477258   0.000000000
Al      -4.454143634  10.289132391   0.000000000
Al      -2.225139628   8.994189511   0.000000000
Al      -6.678970693  14.142670263   0.000000000
Al      -4.454127290  12.858161977   0.000000000
Al       4.454176519   2.568597924   0.000000000
Al       6.685993808   1.290766304   0.000000000
Al       2.228524746   6.429933356   0.000000000
Al       4.454193083   5.142486318   0.000000000
Al      -0.002615289  10.288071690   0.000000000
Al       2.226433748   9.001120740   0.000000000
Al      -2.229251519  14.142687735   0.000000000
Al       0.006646719  12.859825750   0.000000000
Al       8.905581441   2.574326082   0.000000000
Al      11.152842168   1.295921395   0.000000000
Al       6.679935222   6.429974644   0.000000000
Al       8.909748525   5.142519296   0.000000000
Al       4.454240387  10.284987508   0.000000000
Al       6.682055085   9.001153809   0.000000000
Al       2.228022802  14.140255913   0.000000000
Al       4.454240670  12.859743105   0.000000000
Al      15.572349188   1.295934728   0.000000000
Al      11.131845270   6.430301374   0.000000000
Al      13.362591516   5.123319593   0.000000000
Al       8.911061764  10.288113869   0.000000000
Al      11.133622333   8.994244512   0.000000000
Al       6.680515376  14.140274065   0.000000000
Al       8.901838148  12.859865901   0.000000000



     Writing output data file 25al_planar_2x2_vcr.save/
     NEW-OLD atomic charge density approx. for the potential

     negative rho (up, down):  4.806E-07 0.000E+00
     extrapolated charge   92.95882, renormalised to   93.00000

     total cpu time spent up to now is      953.9 secs

     Self-consistent Calculation

     iteration #  1     ecut=    80.00 Ry     beta= 0.40
     Davidson diagonalization with overlap
     ethr =  1.00E-06,  avg # of iterations =  4.0

     negative rho (up, down):  2.408E-07 0.000E+00

     total cpu time spent up to now is      988.2 secs

     total energy              =    -140.93841228 Ry
     Harris-Foulkes estimate   =    -141.14232484 Ry
     estimated scf accuracy    <       0.00012497 Ry

     iteration #  2     ecut=    80.00 Ry     beta= 0.40
     Davidson diagonalization with overlap
     c_bands:  1 eigenvalues not converged
     ethr =  1.34E-07,  avg # of iterations = 20.0

     negative rho (up, down):  2.172E-07 0.000E+00

     total cpu time spent up to now is     1027.6 secs

     total energy              =    -140.93835794 Ry
     Harris-Foulkes estimate   =    -140.93855477 Ry
     estimated scf accuracy    <       0.00151201 Ry

     iteration #  3     ecut=    80.00 Ry     beta= 0.40
     Davidson diagonalization with overlap
     ethr =  1.34E-07,  avg # of iterations =  4.0

     negative rho (up, down):  1.501E-07 0.000E+00

     total cpu time spent up to now is     1054.9 secs

     total energy              =    -140.93844916 Ry
     Harris-Foulkes estimate   =    -140.93846026 Ry
     estimated scf accuracy    <       0.00005117 Ry

     iteration #  4     ecut=    80.00 Ry     beta= 0.40
     Davidson diagonalization with overlap
     ethr =  5.50E-08,  avg # of iterations =  2.0

     negative rho (up, down):  9.351E-08 0.000E+00

     total cpu time spent up to now is     1077.8 secs

     total energy              =    -140.93845101 Ry
     Harris-Foulkes estimate   =    -140.93845459 Ry
     estimated scf accuracy    <       0.00001570 Ry

     iteration #  5     ecut=    80.00 Ry     beta= 0.40
     Davidson diagonalization with overlap
     ethr =  1.69E-08,  avg # of iterations =  5.0

     negative rho (up, down):  5.267E-08 0.000E+00

     total cpu time spent up to now is     1104.6 secs

     total energy              =    -140.93844969 Ry
     Harris-Foulkes estimate   =    -140.93845616 Ry
     estimated scf accuracy    <       0.00003534 Ry

     iteration #  6     ecut=    80.00 Ry     beta= 0.40
     Davidson diagonalization with overlap
     ethr =  1.69E-08,  avg # of iterations =  4.0

     negative rho (up, down):  2.473E-08 0.000E+00

     total cpu time spent up to now is     1129.5 secs

     total energy              =    -140.93845283 Ry
     Harris-Foulkes estimate   =    -140.93845465 Ry
     estimated scf accuracy    <       0.00001155 Ry

     iteration #  7     ecut=    80.00 Ry     beta= 0.40
     Davidson diagonalization with overlap
     ethr =  1.24E-08,  avg # of iterations =  1.0

     negative rho (up, down):  1.479E-08 0.000E+00

     total cpu time spent up to now is     1152.3 secs

     total energy              =    -140.93845356 Ry
     Harris-Foulkes estimate   =    -140.93845399 Ry
     estimated scf accuracy    <       0.00000202 Ry

     iteration #  8     ecut=    80.00 Ry     beta= 0.40
     Davidson diagonalization with overlap
     ethr =  2.17E-09,  avg # of iterations =  6.0

     total cpu time spent up to now is     1180.2 secs

     total energy              =    -140.93845387 Ry
     Harris-Foulkes estimate   =    -140.93845427 Ry
     estimated scf accuracy    <       0.00000295 Ry

     iteration #  9     ecut=    80.00 Ry     beta= 0.40
     Davidson diagonalization with overlap
     ethr =  2.17E-09,  avg # of iterations =  3.0

     total cpu time spent up to now is     1200.8 secs

     End of self-consistent calculation

          k = 0.0000 0.0000 0.0000 (448403 PWs)   bands (ev):

    -9.9542  -9.4499  -9.4359  -9.4350  -9.4234  -9.4230  -9.1417  -8.4050
    -8.4033  -8.3852  -8.3801  -8.3800  -8.3074  -8.2508  -8.2501  -7.5844
    -6.9325  -6.9322  -6.8231  -6.4784  -6.4777  -6.4761  -6.3750  -6.3747
    -5.4767  -4.8349  -4.8346  -4.8334  -4.7375  -4.7372  -4.4754  -4.4664
    -4.4436  -4.4433  -4.1285  -4.1284  -3.9783  -3.4721  -3.4666  -3.4661
    -3.4589  -3.4581  -3.3970  -3.2721  -3.2714  -3.2324  -3.2198  -2.9654
    -2.9612  -2.9609  -2.9430  -2.5142  -2.5138  -2.4467  -2.4413  -2.4411

     the Fermi energy is    -3.0907 ev

!    total energy              =    -140.93845395 Ry
     Harris-Foulkes estimate   =    -140.93845406 Ry
     estimated scf accuracy    <       0.00000022 Ry

     The total energy is the sum of the following terms:

     one-electron contribution =    -502.25964783 Ry
     hartree contribution      =     259.87357937 Ry
     xc contribution           =     -61.33136885 Ry
     ewald contribution        =     162.85935877 Ry
     smearing contrib. (-TS)   =      -0.08037541 Ry

     convergence has been achieved in   9 iterations

     Forces acting on atoms (cartesian axes, Ry/au):

     atom    1 type  1   force =     0.00004696    0.00055874    0.00000000
     atom    2 type  1   force =    -0.00290101    0.00251429    0.00000000
     atom    3 type  1   force =     0.00050623   -0.00023261    0.00000000
     atom    4 type  1   force =    -0.00024010   -0.00014537    0.00000000
     atom    5 type  1   force =    -0.00004248    0.00087811    0.00000000
     atom    6 type  1   force =     0.00068893   -0.00373105    0.00000000
     atom    7 type  1   force =     0.00073923   -0.00053407    0.00000000
     atom    8 type  1   force =    -0.00000146   -0.00000054    0.00000000
     atom    9 type  1   force =     0.00009646   -0.00228171    0.00000000
     atom   10 type  1   force =     0.00272317    0.00260096    0.00000000
     atom   11 type  1   force =     0.00060129    0.00035913    0.00000000
     atom   12 type  1   force =    -0.00000658   -0.00099634    0.00000000
     atom   13 type  1   force =    -0.00195961    0.00124568    0.00000000
     atom   14 type  1   force =    -0.00084886    0.00046689    0.00000000
     atom   15 type  1   force =    -0.00085996   -0.00054337    0.00000000
     atom   16 type  1   force =     0.00356573    0.00105898    0.00000000
     atom   17 type  1   force =     0.00001694    0.00074043    0.00000000
     atom   18 type  1   force =     0.01280056    0.00742992    0.00000000
     atom   19 type  1   force =    -0.00059289    0.00035109    0.00000000
     atom   20 type  1   force =     0.00032464   -0.00020796    0.00000000
     atom   21 type  1   force =     0.00000949   -0.00069734    0.00000000
     atom   22 type  1   force =     0.00068046    0.00039051    0.00000000
     atom   23 type  1   force =     0.00066367   -0.00039260    0.00000000
     atom   24 type  1   force =    -0.00001063    0.00040629    0.00000000
     atom   25 type  1   force =    -0.01277482    0.00744620    0.00000000
     atom   26 type  1   force =    -0.00062339   -0.00031522    0.00000000
     atom   27 type  1   force =     0.00002942   -0.01477473    0.00000000
     atom   28 type  1   force =     0.00215186    0.00125403    0.00000000
     atom   29 type  1   force =    -0.00068987   -0.00363729    0.00000000
     atom   30 type  1   force =    -0.00060723   -0.00041288    0.00000000
     atom   31 type  1   force =    -0.00348618    0.00120184    0.00000000

     Total force =     0.027696     Total SCF correction =     0.000279


     Computing stress (Cartesian axis) and pressure

          total   stress  (Ry/bohr**3)                   (kbar)     P=   -0.60
  -0.00000609   0.00000003   0.00000000         -0.90      0.01      0.00
   0.00000003  -0.00000610   0.00000000          0.01     -0.90      0.00
   0.00000000   0.00000000   0.00000001          0.00      0.00      0.00


     number of scf cycles    =   3
     number of bfgs steps    =   2

     enthalpy old            =    -140.9371130234 Ry
     enthalpy new            =    -140.9384539536 Ry

     CASE: enthalpy_new < enthalpy_old

     new trust radius        =       0.0341027280 bohr
     new conv_thr            =       0.0000010000 Ry

     new unit-cell volume =  37077.89569 a.u.^3 (  5494.37720 Ang^3 )
     density =      0.28090 g/cm^3

CELL_PARAMETERS (alat= 33.68096681)
   0.999294393   0.000002381   0.000000000
  -0.499645134   0.865412307   0.000000000
   0.000000000   0.000000000   1.122132950

ATOMIC_POSITIONS (angstrom)
Al       0.004176883   2.574965410   0.000000000
Al       2.217758182   1.294126376   0.000000000
Al      -2.220599033   6.428459513   0.000000000
Al      -0.002078773   5.140278143   0.000000000
Al      -4.452640804  10.287360667   0.000000000
Al      -2.223070783   8.985852708   0.000000000
Al      -6.675185688  14.136904356   0.000000000
Al      -4.452599985  12.853777942   0.000000000
Al       4.452728206   2.564949785   0.000000000
Al       6.687522335   1.294196406   0.000000000
Al       2.228786922   6.428342334   0.000000000
Al       4.452667618   5.139791580   0.000000000
Al      -0.004994140  10.286023214   0.000000000
Al       2.224867298   8.998503993   0.000000000
Al      -2.230030750  14.136921688   0.000000000
Al       0.011856038  12.856825878   0.000000000
Al       8.901235078   2.575127217   0.000000000
Al      11.164659027   1.304550137   0.000000000
Al       6.676689749   6.428392941   0.000000000
Al       8.907533730   5.140289711   0.000000000
Al       4.452754456  10.280339496   0.000000000
Al       6.680503633   8.998497142   0.000000000
Al       2.228069163  14.133428758   0.000000000
Al       4.452726865  12.856324975   0.000000000
Al      15.551477458   1.304581260   0.000000000
Al      11.125991572   6.428508983   0.000000000
Al      13.358075509   5.103581365   0.000000000
Al       8.910570894  10.286081722   0.000000000
Al      11.128548271   8.985988453   0.000000000
Al       6.677542829  14.133439936   0.000000000
Al       8.893673783  12.856973895   0.000000000



     Writing output data file 25al_planar_2x2_vcr.save/
     NEW-OLD atomic charge density approx. for the potential

     negative rho (up, down):  7.559E-07 0.000E+00
     extrapolated charge   92.93677, renormalised to   93.00000

     total cpu time spent up to now is     1276.5 secs

     Self-consistent Calculation

     iteration #  1     ecut=    80.00 Ry     beta= 0.40
     Davidson diagonalization with overlap
     ethr =  1.00E-06,  avg # of iterations =  5.0

     negative rho (up, down):  3.846E-07 0.000E+00

     total cpu time spent up to now is     1316.0 secs

     total energy              =    -140.94022047 Ry
     Harris-Foulkes estimate   =    -141.25345310 Ry
     estimated scf accuracy    <       0.00021221 Ry

     iteration #  2     ecut=    80.00 Ry     beta= 0.40
     Davidson diagonalization with overlap
     ethr =  2.28E-07,  avg # of iterations =  5.0

     negative rho (up, down):  3.468E-07 0.000E+00

     total cpu time spent up to now is     1356.0 secs

     total energy              =    -140.94019882 Ry
     Harris-Foulkes estimate   =    -140.94050295 Ry
     estimated scf accuracy    <       0.00232745 Ry

     iteration #  3     ecut=    80.00 Ry     beta= 0.40
     Davidson diagonalization with overlap
     ethr =  2.28E-07,  avg # of iterations =  4.0

     negative rho (up, down):  2.207E-07 0.000E+00

     total cpu time spent up to now is     1389.8 secs

     total energy              =    -140.94033990 Ry
     Harris-Foulkes estimate   =    -140.94035025 Ry
     estimated scf accuracy    <       0.00004643 Ry

     iteration #  4     ecut=    80.00 Ry     beta= 0.40
     Davidson diagonalization with overlap
     ethr =  4.99E-08,  avg # of iterations =  3.0

     negative rho (up, down):  1.302E-07 0.000E+00

     total cpu time spent up to now is     1413.0 secs

     total energy              =    -140.94034008 Ry
     Harris-Foulkes estimate   =    -140.94034513 Ry
     estimated scf accuracy    <       0.00002180 Ry

     iteration #  5     ecut=    80.00 Ry     beta= 0.40
     Davidson diagonalization with overlap
     ethr =  2.34E-08,  avg # of iterations =  4.0

     negative rho (up, down):  5.824E-08 0.000E+00

     total cpu time spent up to now is     1438.3 secs

     total energy              =    -140.94033689 Ry
     Harris-Foulkes estimate   =    -140.94034889 Ry
     estimated scf accuracy    <       0.00007536 Ry

     iteration #  6     ecut=    80.00 Ry     beta= 0.40
     Davidson diagonalization with overlap
     ethr =  2.34E-08,  avg # of iterations =  4.0

     negative rho (up, down):  2.642E-08 0.000E+00

     total cpu time spent up to now is     1465.3 secs

     total energy              =    -140.94034293 Ry
     Harris-Foulkes estimate   =    -140.94034451 Ry
     estimated scf accuracy    <       0.00000903 Ry

     iteration #  7     ecut=    80.00 Ry     beta= 0.40
     Davidson diagonalization with overlap
     ethr =  9.71E-09,  avg # of iterations =  3.0

     negative rho (up, down):  1.882E-08 0.000E+00

     total cpu time spent up to now is     1489.6 secs

     total energy              =    -140.94034366 Ry
     Harris-Foulkes estimate   =    -140.94034425 Ry
     estimated scf accuracy    <       0.00000360 Ry

     iteration #  8     ecut=    80.00 Ry     beta= 0.40
     Davidson diagonalization with overlap
     ethr =  3.87E-09,  avg # of iterations =  4.0

     total cpu time spent up to now is     1516.1 secs

     End of self-consistent calculation

          k = 0.0000 0.0000 0.0000 (448403 PWs)   bands (ev):

    -9.9555  -9.4511  -9.4395  -9.4385  -9.4205  -9.4203  -9.1387  -8.4040
    -8.4026  -8.3906  -8.3750  -8.3745  -8.3103  -8.2450  -8.2444  -7.5827
    -6.9328  -6.9326  -6.8232  -6.4788  -6.4780  -6.4683  -6.3785  -6.3781
    -5.4884  -4.8300  -4.8279  -4.8277  -4.7382  -4.7380  -4.4731  -4.4650
    -4.4442  -4.4440  -4.1346  -4.1343  -3.9789  -3.4724  -3.4672  -3.4664
    -3.4577  -3.4572  -3.3934  -3.2695  -3.2689  -3.2553  -3.2180  -2.9601
    -2.9576  -2.9574  -2.9437  -2.5090  -2.5086  -2.4448  -2.4361  -2.4356

     the Fermi energy is    -3.0903 ev

!    total energy              =    -140.94034363 Ry
     Harris-Foulkes estimate   =    -140.94034421 Ry
     estimated scf accuracy    <       0.00000090 Ry

     The total energy is the sum of the following terms:

     one-electron contribution =    -502.47120111 Ry
     hartree contribution      =     259.97914745 Ry
     xc contribution           =     -61.32831255 Ry
     ewald contribution        =     162.95946204 Ry
     smearing contrib. (-TS)   =      -0.07943946 Ry

     convergence has been achieved in   8 iterations

     Forces acting on atoms (cartesian axes, Ry/au):

     atom    1 type  1   force =    -0.00210064   -0.00044698    0.00000000
     atom    2 type  1   force =    -0.00202882    0.00127906    0.00000000
     atom    3 type  1   force =    -0.00144372   -0.00160261    0.00000000
     atom    4 type  1   force =     0.00019959    0.00010979    0.00000000
     atom    5 type  1   force =    -0.00002871   -0.00004302    0.00000000
     atom    6 type  1   force =     0.00006092   -0.00236317    0.00000000
     atom    7 type  1   force =    -0.00005097   -0.00003085    0.00000000
     atom    8 type  1   force =    -0.00001034   -0.00001502    0.00000000
     atom    9 type  1   force =     0.00005201   -0.00219148    0.00000000
     atom   10 type  1   force =     0.00192327    0.00135827    0.00000000
     atom   11 type  1   force =     0.00028834    0.00016723    0.00000000
     atom   12 type  1   force =    -0.00000108   -0.00137934    0.00000000
     atom   13 type  1   force =    -0.00189432    0.00116690    0.00000000
     atom   14 type  1   force =    -0.00118550    0.00066789    0.00000000
     atom   15 type  1   force =    -0.00003658   -0.00004539    0.00000000
     atom   16 type  1   force =     0.00211180    0.00097405    0.00000000
     atom   17 type  1   force =     0.00214492   -0.00030464    0.00000000
     atom   18 type  1   force =     0.01274462    0.00738214    0.00000000
     atom   19 type  1   force =    -0.00026066    0.00013755    0.00000000
     atom   20 type  1   force =    -0.00015235    0.00006250    0.00000000
     atom   21 type  1   force =    -0.00000057   -0.00029955    0.00000000
     atom   22 type  1   force =     0.00106273    0.00061370    0.00000000
     atom   23 type  1   force =     0.00081156    0.00199055    0.00000000
     atom   24 type  1   force =    -0.00001435   -0.00015217    0.00000000
     atom   25 type  1   force =    -0.01273304    0.00740309    0.00000000
     atom   26 type  1   force =     0.00133093   -0.00166204    0.00000000
     atom   27 type  1   force =     0.00002972   -0.01471052    0.00000000
     atom   28 type  1   force =     0.00201821    0.00118177    0.00000000
     atom   29 type  1   force =    -0.00003252   -0.00231187    0.00000000
     atom   30 type  1   force =    -0.00078969    0.00196480    0.00000000
     atom   31 type  1   force =    -0.00201475    0.00109940    0.00000000

     Total force =     0.027049     Total SCF correction =     0.000634


     Computing stress (Cartesian axis) and pressure

          total   stress  (Ry/bohr**3)                   (kbar)     P=   -0.62
  -0.00000633   0.00000003   0.00000000         -0.93      0.00      0.00
   0.00000003  -0.00000634   0.00000000          0.00     -0.93      0.00
   0.00000000   0.00000000   0.00000004          0.00      0.00      0.01


     number of scf cycles    =   4
     number of bfgs steps    =   3

     enthalpy old            =    -140.9384539536 Ry
     enthalpy new            =    -140.9403436250 Ry

     CASE: enthalpy_new < enthalpy_old

     new trust radius        =       0.0511367711 bohr
     new conv_thr            =       0.0000010000 Ry

     new unit-cell volume =  37039.62131 a.u.^3 (  5488.70552 Ang^3 )
     density =      0.28119 g/cm^3

CELL_PARAMETERS (alat= 33.68096681)
   0.998778907   0.000004315   0.000000000
  -0.499385717   0.864964193   0.000000000
   0.000000000   0.000000000   1.122132950

ATOMIC_POSITIONS (angstrom)
Al       0.005074074   2.575472656   0.000000000
Al       2.211242324   1.298507627   0.000000000
Al      -2.217411833   6.425007096   0.000000000
Al      -0.003024453   5.137058030   0.000000000
Al      -4.450347300  10.284169757   0.000000000
Al      -2.220277916   8.974053537   0.000000000
Al      -6.669872607  14.128447687   0.000000000
Al      -4.450293284  12.847115402   0.000000000
Al       4.450483542   2.559519418   0.000000000
Al       6.689345367   1.298645916   0.000000000
Al       2.229016792   6.425822124   0.000000000
Al       4.450352107   5.135514034   0.000000000
Al      -0.008525286  10.282819327   0.000000000
Al       2.222318565   8.994633322   0.000000000
Al      -2.230747676  14.128460672   0.000000000
Al       0.018875458  12.852213812   0.000000000
Al       8.895798883   2.575778245   0.000000000
Al      11.182301905   1.317461266   0.000000000
Al       6.671942949   6.425873832   0.000000000
Al       8.903928284   5.137039662   0.000000000
Al       4.450488494  10.273502579   0.000000000
Al       6.678369492   8.994591647   0.000000000
Al       2.228217939  14.124366859   0.000000000
Al       4.450421715  12.850845330   0.000000000
Al      15.520079247   1.317517550   0.000000000
Al      11.118164011   6.425035092   0.000000000
Al      13.351213963   5.073956437   0.000000000
Al       8.909663793  10.282902543   0.000000000
Al      11.121207096   8.974263712   0.000000000
Al       6.672915359  14.124364857   0.000000000
Al       8.882156257  12.852489067   0.000000000



     Writing output data file 25al_planar_2x2_vcr.save/
     NEW-OLD atomic charge density approx. for the potential

     negative rho (up, down):  1.156E-06 0.000E+00
     extrapolated charge   92.90398, renormalised to   93.00000

     total cpu time spent up to now is     1595.3 secs

     Self-consistent Calculation

     iteration #  1     ecut=    80.00 Ry     beta= 0.40
     Davidson diagonalization with overlap
     ethr =  1.00E-06,  avg # of iterations =  6.0

     negative rho (up, down):  5.979E-07 0.000E+00

     total cpu time spent up to now is     1634.3 secs

     total energy              =    -140.94266982 Ry
     Harris-Foulkes estimate   =    -141.41877458 Ry
     estimated scf accuracy    <       0.00050598 Ry

     iteration #  2     ecut=    80.00 Ry     beta= 0.40
     Davidson diagonalization with overlap
     ethr =  5.44E-07,  avg # of iterations =  7.0

     negative rho (up, down):  5.422E-07 0.000E+00

     total cpu time spent up to now is     1669.2 secs

     total energy              =    -140.94253254 Ry
     Harris-Foulkes estimate   =    -140.94344337 Ry
     estimated scf accuracy    <       0.00722871 Ry

     iteration #  3     ecut=    80.00 Ry     beta= 0.40
     Davidson diagonalization with overlap
     ethr =  5.44E-07,  avg # of iterations =  4.0

     negative rho (up, down):  3.653E-07 0.000E+00

     total cpu time spent up to now is     1697.8 secs

     total energy              =    -140.94296164 Ry
     Harris-Foulkes estimate   =    -140.94298973 Ry
     estimated scf accuracy    <       0.00012372 Ry

     iteration #  4     ecut=    80.00 Ry     beta= 0.40
     Davidson diagonalization with overlap
     ethr =  1.33E-07,  avg # of iterations =  4.0

     negative rho (up, down):  2.795E-07 0.000E+00

     total cpu time spent up to now is     1722.2 secs

     total energy              =    -140.94295850 Ry
     Harris-Foulkes estimate   =    -140.94297754 Ry
     estimated scf accuracy    <       0.00007984 Ry

     iteration #  5     ecut=    80.00 Ry     beta= 0.40
     Davidson diagonalization with overlap
     ethr =  8.59E-08,  avg # of iterations =  3.0

     negative rho (up, down):  1.251E-07 0.000E+00

     total cpu time spent up to now is     1746.2 secs

     total energy              =    -140.94295973 Ry
     Harris-Foulkes estimate   =    -140.94298147 Ry
     estimated scf accuracy    <       0.00013890 Ry

     iteration #  6     ecut=    80.00 Ry     beta= 0.40
     Davidson diagonalization with overlap
     ethr =  8.59E-08,  avg # of iterations =  3.0

     negative rho (up, down):  4.681E-08 0.000E+00

     total cpu time spent up to now is     1769.8 secs

     total energy              =    -140.94296928 Ry
     Harris-Foulkes estimate   =    -140.94297261 Ry
     estimated scf accuracy    <       0.00001474 Ry

     iteration #  7     ecut=    80.00 Ry     beta= 0.40
     Davidson diagonalization with overlap
     ethr =  1.59E-08,  avg # of iterations =  5.0

     negative rho (up, down):  3.084E-08 0.000E+00

     total cpu time spent up to now is     1796.8 secs

     total energy              =    -140.94297060 Ry
     Harris-Foulkes estimate   =    -140.94297401 Ry
     estimated scf accuracy    <       0.00002344 Ry

     iteration #  8     ecut=    80.00 Ry     beta= 0.40
     Davidson diagonalization with overlap
     ethr =  1.59E-08,  avg # of iterations =  3.0

     total cpu time spent up to now is     1818.8 secs

     total energy              =    -140.94297214 Ry
     Harris-Foulkes estimate   =    -140.94297237 Ry
     estimated scf accuracy    <       0.00000119 Ry

     iteration #  9     ecut=    80.00 Ry     beta= 0.40
     Davidson diagonalization with overlap
     ethr =  1.28E-09,  avg # of iterations =  6.0

     total cpu time spent up to now is     1854.0 secs

     total energy              =    -140.94297238 Ry
     Harris-Foulkes estimate   =    -140.94297262 Ry
     estimated scf accuracy    <       0.00000236 Ry

     iteration # 10     ecut=    80.00 Ry     beta= 0.40
     Davidson diagonalization with overlap
     ethr =  1.28E-09,  avg # of iterations =  2.0

     total cpu time spent up to now is     1878.3 secs

     total energy              =    -140.94297224 Ry
     Harris-Foulkes estimate   =    -140.94297242 Ry
     estimated scf accuracy    <       0.00000148 Ry

     iteration # 11     ecut=    80.00 Ry     beta= 0.40
     Davidson diagonalization with overlap
     ethr =  1.28E-09,  avg # of iterations =  1.0

     total cpu time spent up to now is     1901.8 secs

     End of self-consistent calculation

          k = 0.0000 0.0000 0.0000 (448403 PWs)   bands (ev):

    -9.9567  -9.4518  -9.4438  -9.4427  -9.4159  -9.4157  -9.1341  -8.4025
    -8.4012  -8.3968  -8.3676  -8.3672  -8.3135  -8.2348  -8.2344  -7.5798
    -6.9327  -6.9324  -6.8233  -6.4783  -6.4771  -6.4572  -6.3815  -6.3814
    -5.5047  -4.8244  -4.8177  -4.8175  -4.7374  -4.7372  -4.4688  -4.4615
    -4.4447  -4.4444  -4.1427  -4.1426  -3.9791  -3.4722  -3.4689  -3.4678
    -3.4544  -3.4541  -3.3870  -3.2895  -3.2648  -3.2642  -3.2154  -2.9597
    -2.9514  -2.9510  -2.9348  -2.5009  -2.5007  -2.4426  -2.4280  -2.4278

     the Fermi energy is    -3.0890 ev

!    total energy              =    -140.94297191 Ry
     Harris-Foulkes estimate   =    -140.94297228 Ry
     estimated scf accuracy    <       0.00000044 Ry

     The total energy is the sum of the following terms:

     one-electron contribution =    -502.79087078 Ry
     hartree contribution      =     260.13600821 Ry
     xc contribution           =     -61.32340834 Ry
     ewald contribution        =     163.11315323 Ry
     smearing contrib. (-TS)   =      -0.07785423 Ry

     convergence has been achieved in  11 iterations

     Forces acting on atoms (cartesian axes, Ry/au):

     atom    1 type  1   force =    -0.00490135   -0.00180536    0.00000000
     atom    2 type  1   force =    -0.00091960   -0.00031011    0.00000000
     atom    3 type  1   force =    -0.00399944   -0.00335669    0.00000000
     atom    4 type  1   force =     0.00074402    0.00043960    0.00000000
     atom    5 type  1   force =    -0.00002329   -0.00123876    0.00000000
     atom    6 type  1   force =    -0.00074356   -0.00060611    0.00000000
     atom    7 type  1   force =    -0.00110297    0.00057440    0.00000000
     atom    8 type  1   force =    -0.00001989   -0.00002420    0.00000000
     atom    9 type  1   force =     0.00002590   -0.00213242    0.00000000
     atom   10 type  1   force =     0.00085242   -0.00025633    0.00000000
     atom   11 type  1   force =    -0.00013370   -0.00005501    0.00000000
     atom   12 type  1   force =     0.00002794   -0.00187226    0.00000000
     atom   13 type  1   force =    -0.00184919    0.00111537    0.00000000
     atom   14 type  1   force =    -0.00160704    0.00092987    0.00000000
     atom   15 type  1   force =     0.00101833    0.00057767    0.00000000
     atom   16 type  1   force =     0.00019975    0.00084479    0.00000000
     atom   17 type  1   force =     0.00492020   -0.00171826    0.00000000
     atom   18 type  1   force =     0.01285423    0.00744652    0.00000000
     atom   19 type  1   force =     0.00012263   -0.00010504    0.00000000
     atom   20 type  1   force =    -0.00069821    0.00042983    0.00000000
     atom   21 type  1   force =    -0.00002169    0.00016978    0.00000000
     atom   22 type  1   force =     0.00154666    0.00089391    0.00000000
     atom   23 type  1   force =     0.00097504    0.00508892    0.00000000
     atom   24 type  1   force =     0.00001752   -0.00081980    0.00000000
     atom   25 type  1   force =    -0.01283165    0.00743667    0.00000000
     atom   26 type  1   force =     0.00392721   -0.00338019    0.00000000
     atom   27 type  1   force =     0.00001838   -0.01483457    0.00000000
     atom   28 type  1   force =     0.00192616    0.00113945    0.00000000
     atom   29 type  1   force =     0.00076536   -0.00059335    0.00000000
     atom   30 type  1   force =    -0.00097697    0.00509217    0.00000000
     atom   31 type  1   force =    -0.00011320    0.00092955    0.00000000

     Total force =     0.029312     Total SCF correction =     0.000536


     Computing stress (Cartesian axis) and pressure

          total   stress  (Ry/bohr**3)                   (kbar)     P=   -0.66
  -0.00000668   0.00000002   0.00000000         -0.98      0.00      0.00
   0.00000002  -0.00000669   0.00000000          0.00     -0.98      0.00
   0.00000000   0.00000000  -0.00000000          0.00      0.00     -0.00


     number of scf cycles    =   5
     number of bfgs steps    =   4

     enthalpy old            =    -140.9403436250 Ry
     enthalpy new            =    -140.9429719113 Ry

     CASE: enthalpy_new < enthalpy_old

     new trust radius        =       0.0766657011 bohr
     new conv_thr            =       0.0000010000 Ry

     new unit-cell volume =  36981.88744 a.u.^3 (  5480.15025 Ang^3 )
     density =      0.28163 g/cm^3

CELL_PARAMETERS (alat= 33.68096681)
   0.998000736   0.000006755   0.000000000
  -0.498994518   0.864288133   0.000000000
   0.000000000   0.000000000   1.122132950

ATOMIC_POSITIONS (angstrom)
Al       0.005186111   2.575674270   0.000000000
Al       2.202006273   1.304347497   0.000000000
Al      -2.213699056   6.419003683   0.000000000
Al      -0.004260893   5.132319927   0.000000000
Al      -4.446880802  10.278827623   0.000000000
Al      -2.216421522   8.957146327   0.000000000
Al      -6.662324563  14.115964388   0.000000000
Al      -4.446823201  12.837058167   0.000000000
Al       4.447065771   2.551410368   0.000000000
Al       6.691540412   1.304555926   0.000000000
Al       2.229174143   6.421924310   0.000000000
Al       4.446870000   5.128871442   0.000000000
Al      -0.013787132  10.277910429   0.000000000
Al       2.218307350   8.988894469   0.000000000
Al      -2.231350059  14.115982119   0.000000000
Al       0.028506643  12.845173520   0.000000000
Al       8.888808418   2.576130871   0.000000000
Al      11.208664567   1.336790872   0.000000000
Al       6.664935039   6.421968669   0.000000000
Al       8.898277199   5.132284457   0.000000000
Al       4.447050031  10.263383434   0.000000000
Al       6.675364387   8.988820448   0.000000000
Al       2.228499766  14.112048664   0.000000000
Al       4.446956395  12.842307052   0.000000000
Al      15.472957234   1.336858318   0.000000000
Al      11.107489308   6.419027898   0.000000000
Al      13.340839338   5.029544055   0.000000000
Al       8.908162181  10.278030213   0.000000000
Al      11.110466585   8.957426888   0.000000000
Al       6.665843205  14.112047282   0.000000000
Al       8.865695418  12.845588662   0.000000000



     Writing output data file 25al_planar_2x2_vcr.save/
     NEW-OLD atomic charge density approx. for the potential

     negative rho (up, down):  1.735E-06 0.000E+00
     extrapolated charge   92.85493, renormalised to   93.00000

     total cpu time spent up to now is     1978.4 secs

     Self-consistent Calculation

     iteration #  1     ecut=    80.00 Ry     beta= 0.40
     Davidson diagonalization with overlap
     ethr =  1.00E-06,  avg # of iterations =  8.0

     negative rho (up, down):  9.118E-07 0.000E+00

     total cpu time spent up to now is     2022.4 secs

     total energy              =    -140.94618708 Ry
     Harris-Foulkes estimate   =    -141.66618483 Ry
     estimated scf accuracy    <       0.00080420 Ry

     iteration #  2     ecut=    80.00 Ry     beta= 0.40
     Davidson diagonalization with overlap
     ethr =  8.65E-07,  avg # of iterations =  5.0

     negative rho (up, down):  8.201E-07 0.000E+00

     total cpu time spent up to now is     2056.7 secs

     total energy              =    -140.94619992 Ry
     Harris-Foulkes estimate   =    -140.94727865 Ry
     estimated scf accuracy    <       0.00797764 Ry

     iteration #  3     ecut=    80.00 Ry     beta= 0.40
     Davidson diagonalization with overlap
     ethr =  8.65E-07,  avg # of iterations = 18.0

     negative rho (up, down):  5.779E-07 0.000E+00

     total cpu time spent up to now is     2091.2 secs

     total energy              =    -140.94660994 Ry
     Harris-Foulkes estimate   =    -140.94667433 Ry
     estimated scf accuracy    <       0.00028337 Ry

     iteration #  4     ecut=    80.00 Ry     beta= 0.40
     Davidson diagonalization with overlap
     ethr =  3.05E-07,  avg # of iterations =  1.0

     negative rho (up, down):  4.335E-07 0.000E+00

     total cpu time spent up to now is     2114.1 secs

     total energy              =    -140.94660885 Ry
     Harris-Foulkes estimate   =    -140.94664251 Ry
     estimated scf accuracy    <       0.00017701 Ry

     iteration #  5     ecut=    80.00 Ry     beta= 0.40
     Davidson diagonalization with overlap
     ethr =  1.90E-07,  avg # of iterations =  1.0

     negative rho (up, down):  2.159E-07 0.000E+00

     total cpu time spent up to now is     2136.1 secs

     total energy              =    -140.94660297 Ry
     Harris-Foulkes estimate   =    -140.94664750 Ry
     estimated scf accuracy    <       0.00026791 Ry

     iteration #  6     ecut=    80.00 Ry     beta= 0.40
     Davidson diagonalization with overlap
     ethr =  1.90E-07,  avg # of iterations =  1.0

     negative rho (up, down):  6.887E-08 0.000E+00

     total cpu time spent up to now is     2157.5 secs

     total energy              =    -140.94662198 Ry
     Harris-Foulkes estimate   =    -140.94662953 Ry
     estimated scf accuracy    <       0.00003554 Ry

     iteration #  7     ecut=    80.00 Ry     beta= 0.40
     Davidson diagonalization with overlap
     ethr =  3.82E-08,  avg # of iterations =  4.0

     negative rho (up, down):  4.318E-08 0.000E+00

     total cpu time spent up to now is     2182.2 secs

     total energy              =    -140.94662483 Ry
     Harris-Foulkes estimate   =    -140.94663321 Ry
     estimated scf accuracy    <       0.00005839 Ry

     iteration #  8     ecut=    80.00 Ry     beta= 0.40
     Davidson diagonalization with overlap
     ethr =  3.82E-08,  avg # of iterations =  3.0

     negative rho (up, down):  2.347E-08 0.000E+00

     total cpu time spent up to now is     2204.2 secs

     total energy              =    -140.94662859 Ry
     Harris-Foulkes estimate   =    -140.94662949 Ry
     estimated scf accuracy    <       0.00000360 Ry

     iteration #  9     ecut=    80.00 Ry     beta= 0.40
     Davidson diagonalization with overlap
     ethr =  3.87E-09,  avg # of iterations =  5.0

     negative rho (up, down):  1.104E-08 0.000E+00

     total cpu time spent up to now is     2235.7 secs

     total energy              =    -140.94662864 Ry
     Harris-Foulkes estimate   =    -140.94662980 Ry
     estimated scf accuracy    <       0.00000656 Ry

     iteration # 10     ecut=    80.00 Ry     beta= 0.40
     Davidson diagonalization with overlap
     ethr =  3.87E-09,  avg # of iterations =  3.0

     total cpu time spent up to now is     2262.1 secs

     total energy              =    -140.94662879 Ry
     Harris-Foulkes estimate   =    -140.94662929 Ry
     estimated scf accuracy    <       0.00000389 Ry

     iteration # 11     ecut=    80.00 Ry     beta= 0.40
     Davidson diagonalization with overlap
     ethr =  3.87E-09,  avg # of iterations =  1.0

     total cpu time spent up to now is     2284.8 secs

     End of self-consistent calculation

          k = 0.0000 0.0000 0.0000 (448403 PWs)   bands (ev):

    -9.9597  -9.4539  -9.4513  -9.4500  -9.4110  -9.4104  -9.1295  -8.4061
    -8.4022  -8.4019  -8.3603  -8.3582  -8.3188  -8.2189  -8.2183  -7.5777
    -6.9338  -6.9336  -6.8255  -6.4779  -6.4767  -6.4430  -6.3859  -6.3852
    -5.5296  -4.8179  -4.8056  -4.8051  -4.7357  -4.7354  -4.4638  -4.4575
    -4.4462  -4.4460  -4.1558  -4.1556  -3.9804  -3.4729  -3.4724  -3.4713
    -3.4500  -3.4494  -3.3776  -3.3413  -3.2593  -3.2590  -3.2129  -2.9660
    -2.9427  -2.9424  -2.9156  -2.4909  -2.4907  -2.4423  -2.4408  -2.4179

     the Fermi energy is    -3.0882 ev

!    total energy              =    -140.94662838 Ry
     Harris-Foulkes estimate   =    -140.94662889 Ry
     estimated scf accuracy    <       0.00000066 Ry

     The total energy is the sum of the following terms:

     one-electron contribution =    -503.28056137 Ry
     hartree contribution      =     260.37685041 Ry
     xc contribution           =     -61.31720953 Ry
     ewald contribution        =     163.35001627 Ry
     smearing contrib. (-TS)   =      -0.07572416 Ry

     convergence has been achieved in  11 iterations

     Forces acting on atoms (cartesian axes, Ry/au):

     atom    1 type  1   force =    -0.00892766   -0.00362705    0.00000000
     atom    2 type  1   force =     0.00088531   -0.00234620    0.00000000
     atom    3 type  1   force =    -0.00746268   -0.00596975    0.00000000
     atom    4 type  1   force =     0.00147617    0.00095523    0.00000000
     atom    5 type  1   force =     0.00003187   -0.00269764    0.00000000
     atom    6 type  1   force =    -0.00151136    0.00207007    0.00000000
     atom    7 type  1   force =    -0.00237695    0.00135819    0.00000000
     atom    8 type  1   force =     0.00000601   -0.00002641    0.00000000
     atom    9 type  1   force =    -0.00020340   -0.00230393    0.00000000
     atom   10 type  1   force =    -0.00050056   -0.00241531    0.00000000
     atom   11 type  1   force =    -0.00071549   -0.00027884    0.00000000
     atom   12 type  1   force =     0.00023660   -0.00223187    0.00000000
     atom   13 type  1   force =    -0.00221526    0.00104825    0.00000000
     atom   14 type  1   force =    -0.00186190    0.00114834    0.00000000
     atom   15 type  1   force =     0.00239981    0.00137831    0.00000000
     atom   16 type  1   force =    -0.00241419    0.00061118    0.00000000
     atom   17 type  1   force =     0.00868629   -0.00370328    0.00000000
     atom   18 type  1   force =     0.01305633    0.00758825    0.00000000
     atom   19 type  1   force =     0.00069800   -0.00056312    0.00000000
     atom   20 type  1   force =    -0.00184637    0.00095179    0.00000000
     atom   21 type  1   force =    -0.00018039    0.00078238    0.00000000
     atom   22 type  1   force =     0.00216196    0.00112588    0.00000000
     atom   23 type  1   force =     0.00122399    0.00935664    0.00000000
     atom   24 type  1   force =    -0.00016058   -0.00190686    0.00000000
     atom   25 type  1   force =    -0.01298397    0.00740471    0.00000000
     atom   26 type  1   force =     0.00769413   -0.00569295    0.00000000
     atom   27 type  1   force =    -0.00006896   -0.01506129    0.00000000
     atom   28 type  1   force =     0.00182959    0.00105900    0.00000000
     atom   29 type  1   force =     0.00174885    0.00168238    0.00000000
     atom   30 type  1   force =    -0.00111206    0.00965766    0.00000000
     atom   31 type  1   force =     0.00240688    0.00064627    0.00000000

     Total force =     0.036486     Total SCF correction =     0.000646


     Computing stress (Cartesian axis) and pressure

          total   stress  (Ry/bohr**3)                   (kbar)     P=   -0.70
  -0.00000720  -0.00000007   0.00000000         -1.06     -0.01      0.00
  -0.00000007  -0.00000714   0.00000000         -0.01     -1.05      0.00
   0.00000000   0.00000000   0.00000000          0.00      0.00      0.00


     number of scf cycles    =   6
     number of bfgs steps    =   5

     enthalpy old            =    -140.9429719113 Ry
     enthalpy new            =    -140.9466283847 Ry

     CASE: enthalpy_new < enthalpy_old

     new trust radius        =       0.1149091670 bohr
     new conv_thr            =       0.0000010000 Ry

     new unit-cell volume =  36895.03504 a.u.^3 (  5467.28005 Ang^3 )
     density =      0.28229 g/cm^3

CELL_PARAMETERS (alat= 33.68096681)
   0.996827876   0.000007602   0.000000000
  -0.498407355   0.863272442   0.000000000
   0.000000000   0.000000000   1.122132950

ATOMIC_POSITIONS (angstrom)
Al       0.003865142   2.575385842   0.000000000
Al       2.188947403   1.312370232   0.000000000
Al      -2.209300968   6.408971668   0.000000000
Al      -0.005933993   5.125365632   0.000000000
Al      -4.441644067  10.270339622   0.000000000
Al      -2.210813154   8.932880492   0.000000000
Al      -6.651396292  14.097476547   0.000000000
Al      -4.441610773  12.821942141   0.000000000
Al       4.441750833   2.539134562   0.000000000
Al       6.694287693   1.312580250   0.000000000
Al       2.229181504   6.416003905   0.000000000
Al       4.441733931   5.118868316   0.000000000
Al      -0.021927641  10.270444962   0.000000000
Al       2.212276932   8.980276824   0.000000000
Al      -2.231799332  14.097498905   0.000000000
Al       0.041910943  12.834456646   0.000000000
Al       8.879575141   2.575919053   0.000000000
Al      11.248032167   1.365701540   0.000000000
Al       6.654567673   6.415883759   0.000000000
Al       8.889258756   5.125286019   0.000000000
Al       4.441740335  10.248348009   0.000000000
Al       6.671015356   8.980159023   0.000000000
Al       2.228965437  14.095014228   0.000000000
Al       4.441576572  12.829046487   0.000000000
Al      15.402323404   1.365661252   0.000000000
Al      11.092777270   6.409153826   0.000000000
Al      13.325126252   4.963001858   0.000000000
Al       8.905732823  10.270581611   0.000000000
Al      11.094566389   8.932964934   0.000000000
Al       6.655140163  14.095193173   0.000000000
Al       8.841842754  12.835007673   0.000000000



     Writing output data file 25al_planar_2x2_vcr.save/
     NEW-OLD atomic charge density approx. for the potential

     negative rho (up, down):  2.659E-06 0.000E+00
     extrapolated charge   92.78125, renormalised to   93.00000

     total cpu time spent up to now is     2360.9 secs

     Self-consistent Calculation

     iteration #  1     ecut=    80.00 Ry     beta= 0.40
     Davidson diagonalization with overlap
     ethr =  1.00E-06,  avg # of iterations = 12.0

     negative rho (up, down):  1.426E-06 0.000E+00

     total cpu time spent up to now is     2412.8 secs

     total energy              =    -140.95083107 Ry
     Harris-Foulkes estimate   =    -142.03840472 Ry
     estimated scf accuracy    <       0.00169948 Ry

     iteration #  2     ecut=    80.00 Ry     beta= 0.40
     Davidson diagonalization with overlap
     c_bands:  1 eigenvalues not converged
     ethr =  1.83E-06,  avg # of iterations = 20.0

     negative rho (up, down):  1.285E-06 0.000E+00

     total cpu time spent up to now is     2458.1 secs

     total energy              =    -140.95072593 Ry
     Harris-Foulkes estimate   =    -140.95316306 Ry
     estimated scf accuracy    <       0.01808832 Ry

     iteration #  3     ecut=    80.00 Ry     beta= 0.40
     Davidson diagonalization with overlap
     ethr =  1.83E-06,  avg # of iterations =  5.0

     negative rho (up, down):  9.368E-07 0.000E+00

     total cpu time spent up to now is     2486.1 secs

     total energy              =    -140.95180151 Ry
     Harris-Foulkes estimate   =    -140.95195211 Ry
     estimated scf accuracy    <       0.00068748 Ry

     iteration #  4     ecut=    80.00 Ry     beta= 0.40
     Davidson diagonalization with overlap
     ethr =  7.39E-07,  avg # of iterations =  3.0

     negative rho (up, down):  6.291E-07 0.000E+00

     total cpu time spent up to now is     2509.1 secs

     total energy              =    -140.95181831 Ry
     Harris-Foulkes estimate   =    -140.95187110 Ry
     estimated scf accuracy    <       0.00030149 Ry

     iteration #  5     ecut=    80.00 Ry     beta= 0.40
     Davidson diagonalization with overlap
     ethr =  3.24E-07,  avg # of iterations =  1.0

     negative rho (up, down):  3.775E-07 0.000E+00

     total cpu time spent up to now is     2529.4 secs

     total energy              =    -140.95179001 Ry
     Harris-Foulkes estimate   =    -140.95187407 Ry
     estimated scf accuracy    <       0.00045502 Ry

     iteration #  6     ecut=    80.00 Ry     beta= 0.40
     Davidson diagonalization with overlap
     ethr =  3.24E-07,  avg # of iterations =  1.0

     negative rho (up, down):  7.187E-08 0.000E+00

     total cpu time spent up to now is     2550.8 secs

     total energy              =    -140.95182655 Ry
     Harris-Foulkes estimate   =    -140.95184641 Ry
     estimated scf accuracy    <       0.00011572 Ry

     iteration #  7     ecut=    80.00 Ry     beta= 0.40
     Davidson diagonalization with overlap
     ethr =  1.24E-07,  avg # of iterations =  3.0

     negative rho (up, down):  5.306E-08 0.000E+00

     total cpu time spent up to now is     2574.1 secs

     total energy              =    -140.95183734 Ry
     Harris-Foulkes estimate   =    -140.95184472 Ry
     estimated scf accuracy    <       0.00004422 Ry

     iteration #  8     ecut=    80.00 Ry     beta= 0.40
     Davidson diagonalization with overlap
     ethr =  4.76E-08,  avg # of iterations =  3.0

     negative rho (up, down):  3.203E-08 0.000E+00

     total cpu time spent up to now is     2596.5 secs

     total energy              =    -140.95184183 Ry
     Harris-Foulkes estimate   =    -140.95184400 Ry
     estimated scf accuracy    <       0.00001098 Ry

     iteration #  9     ecut=    80.00 Ry     beta= 0.40
     Davidson diagonalization with overlap
     ethr =  1.18E-08,  avg # of iterations =  4.0

     total cpu time spent up to now is     2621.6 secs

     total energy              =    -140.95184201 Ry
     Harris-Foulkes estimate   =    -140.95184321 Ry
     estimated scf accuracy    <       0.00000414 Ry

     iteration # 10     ecut=    80.00 Ry     beta= 0.40
     Davidson diagonalization with overlap
     ethr =  4.45E-09,  avg # of iterations =  4.0

     total cpu time spent up to now is     2646.4 secs

     total energy              =    -140.95184208 Ry
     Harris-Foulkes estimate   =    -140.95184282 Ry
     estimated scf accuracy    <       0.00000600 Ry

     iteration # 11     ecut=    80.00 Ry     beta= 0.40
     Davidson diagonalization with overlap
     ethr =  4.45E-09,  avg # of iterations =  2.0

     total cpu time spent up to now is     2667.9 secs

     total energy              =    -140.95184187 Ry
     Harris-Foulkes estimate   =    -140.95184244 Ry
     estimated scf accuracy    <       0.00000243 Ry

     iteration # 12     ecut=    80.00 Ry     beta= 0.40
     Davidson diagonalization with overlap
     ethr =  2.61E-09,  avg # of iterations =  5.0

     total cpu time spent up to now is     2690.3 secs

     End of self-consistent calculation

          k = 0.0000 0.0000 0.0000 (448403 PWs)   bands (ev):

    -9.9648  -9.4617  -9.4615  -9.4566  -9.4059  -9.4053  -9.1257  -8.4206
    -8.4029  -8.4024  -8.3518  -8.3513  -8.3264  -8.1935  -8.1929  -7.5793
    -6.9366  -6.9363  -6.8298  -6.4768  -6.4764  -6.4245  -6.3906  -6.3904
    -5.5687  -4.8085  -4.7916  -4.7915  -4.7299  -4.7298  -4.4566  -4.4514
    -4.4490  -4.4489  -4.1765  -4.1764  -3.9825  -3.4778  -3.4776  -3.4721
    -3.4444  -3.4439  -3.4237  -3.3639  -3.2520  -3.2517  -3.2119  -2.9764
    -2.9303  -2.9301  -2.8849  -2.4772  -2.4768  -2.4578  -2.4385  -2.4383

     the Fermi energy is    -3.0875 ev

!    total energy              =    -140.95184159 Ry
     Harris-Foulkes estimate   =    -140.95184222 Ry
     estimated scf accuracy    <       0.00000077 Ry

     The total energy is the sum of the following terms:

     one-electron contribution =    -504.03654412 Ry
     hartree contribution      =     260.74695533 Ry
     xc contribution           =     -61.30936742 Ry
     ewald contribution        =     163.71948246 Ry
     smearing contrib. (-TS)   =      -0.07236785 Ry

     convergence has been achieved in  12 iterations

     Forces acting on atoms (cartesian axes, Ry/au):

     atom    1 type  1   force =    -0.01428812   -0.00600233    0.00000000
     atom    2 type  1   force =     0.00299336   -0.00537148    0.00000000
     atom    3 type  1   force =    -0.01238714   -0.00939603    0.00000000
     atom    4 type  1   force =     0.00276777    0.00161289    0.00000000
     atom    5 type  1   force =     0.00007739   -0.00479854    0.00000000
     atom    6 type  1   force =    -0.00313468    0.00521642    0.00000000
     atom    7 type  1   force =    -0.00412069    0.00253037    0.00000000
     atom    8 type  1   force =     0.00000276   -0.00001938    0.00000000
     atom    9 type  1   force =    -0.00005688   -0.00231020    0.00000000
     atom   10 type  1   force =    -0.00284418   -0.00536951    0.00000000
     atom   11 type  1   force =    -0.00153548   -0.00091231    0.00000000
     atom   12 type  1   force =     0.00008278   -0.00298437    0.00000000
     atom   13 type  1   force =    -0.00196926    0.00109623    0.00000000
     atom   14 type  1   force =    -0.00260173    0.00160049    0.00000000
     atom   15 type  1   force =     0.00419390    0.00251870    0.00000000
     atom   16 type  1   force =    -0.00596564    0.00019335    0.00000000
     atom   17 type  1   force =     0.01425436   -0.00623376    0.00000000
     atom   18 type  1   force =     0.01334004    0.00765231    0.00000000
     atom   19 type  1   force =     0.00136817   -0.00091595    0.00000000
     atom   20 type  1   force =    -0.00264642    0.00171981    0.00000000
     atom   21 type  1   force =    -0.00004248    0.00167400    0.00000000
     atom   22 type  1   force =     0.00273262    0.00163005    0.00000000
     atom   23 type  1   force =     0.00168193    0.01551808    0.00000000
     atom   24 type  1   force =     0.00017266   -0.00322458    0.00000000
     atom   25 type  1   force =    -0.01340159    0.00765680    0.00000000
     atom   26 type  1   force =     0.01235104   -0.00947786    0.00000000
     atom   27 type  1   force =    -0.00000321   -0.01541196    0.00000000
     atom   28 type  1   force =     0.00188890    0.00114359    0.00000000
     atom   29 type  1   force =     0.00304223    0.00524610    0.00000000
     atom   30 type  1   force =    -0.00200757    0.01546017    0.00000000
     atom   31 type  1   force =     0.00605517   -0.00004112    0.00000000

     Total force =     0.050393     Total SCF correction =     0.000671


     Computing stress (Cartesian axis) and pressure

          total   stress  (Ry/bohr**3)                   (kbar)     P=   -0.77
  -0.00000786  -0.00000006   0.00000000         -1.16     -0.01      0.00
  -0.00000006  -0.00000784   0.00000000         -0.01     -1.15      0.00
   0.00000000   0.00000000   0.00000002          0.00      0.00      0.00


     number of scf cycles    =   7
     number of bfgs steps    =   6

     enthalpy old            =    -140.9466283847 Ry
     enthalpy new            =    -140.9518415929 Ry

     CASE: enthalpy_new < enthalpy_old

     new trust radius        =       0.1721613378 bohr
     new conv_thr            =       0.0000010000 Ry

     new unit-cell volume =  36764.50958 a.u.^3 (  5447.93817 Ang^3 )
     density =      0.28330 g/cm^3

CELL_PARAMETERS (alat= 33.68096681)
   0.995063495   0.000009845   0.000000000
  -0.497523222   0.861742552   0.000000000
   0.000000000   0.000000000   1.122132950

ATOMIC_POSITIONS (angstrom)
Al       0.000370725   2.574375776   0.000000000
Al       2.170022656   1.323440821   0.000000000
[...]


     Computing stress (Cartesian axis) and pressure

          total   stress  (Ry/bohr**3)                   (kbar)     P=   -0.00
   0.00000000   0.00000000   0.00000000          0.00      0.00      0.00
   0.00000000   0.00000001   0.00000000          0.00      0.00      0.00
   0.00000000   0.00000000  -0.00000001          0.00      0.00     -0.00


     bfgs converged in 167 scf cycles and 166 bfgs steps
     (criteria: energy <  1.0E-05 Ry, force <  1.0E-04Ry/Bohr, cell <  5.0E-05kbar)

     End of BFGS Geometry Optimization

     Final enthalpy =    -142.2701674317 Ry
Begin final coordinates
     new unit-cell volume =  26092.74339 a.u.^3 (  3866.54560 Ang^3 )
     density =      0.39916 g/cm^3

CELL_PARAMETERS (alat= 33.68096681)
   0.838292673   0.000454005   0.000000000
  -0.419540738   0.725755213   0.000000000
   0.000000000   0.000000000   1.122132950

ATOMIC_POSITIONS (angstrom)
Al      -0.603850170   2.017107791   0.000000000
Al       2.047302109   1.601391298   0.000000000
Al      -1.568881430   4.520984479   0.000000000
Al       1.082101963   4.105074731   0.000000000
Al      -2.534003000   7.025019256   0.000000000
Al       0.116966973   6.608900323   0.000000000
Al      -7.115917672  12.448629636   0.000000000
Al      -3.499323374   9.528967125   0.000000000
Al       3.012789790  -0.902368865   0.000000000
Al       4.698415431   1.185486820   0.000000000
Al       2.768143628   6.192894233   0.000000000
Al       3.733227799   3.689224606   0.000000000
Al      -0.848291811   9.112842778   0.000000000
Al       1.802808308   8.696646877   0.000000000
Al      -1.813727350  11.616812015   0.000000000
Al       0.837283699  11.200581169   0.000000000
Al       7.349478600   0.769299732   0.000000000
Al       9.035349652   2.857144270   0.000000000
Al       5.419348075   5.776941354   0.000000000
Al       6.384430935   3.273201163   0.000000000
Al       4.453992491   8.280698995   0.000000000
Al       7.105177155   7.864925547   0.000000000
Al       2.522972337  13.288408482   0.000000000
Al       3.488443908  10.784486762   0.000000000
Al      11.686257587   2.441082350   0.000000000
Al       8.070381646   5.361097553   0.000000000
Al      10.721310187   4.945096910   0.000000000
Al       8.790724385   9.952980971   0.000000000
Al       9.756200520   7.449013580   0.000000000
Al       5.173988818  12.872464907   0.000000000
Al       6.139618876  10.368653976   0.000000000
End final coordinates



     Writing output data file 25al_planar_2x2_vcr.save/

     A final scf calculation at the relaxed structure.
     The G-vectors are recalculated for the final unit cell
     Results may differ from those at the preceding step.
 
     Parallelization info
     --------------------
     sticks:   dense  smooth     PW     G-vecs:    dense   smooth      PW
     Min        2198    2198    550               315304   315304   39396
     Max        2199    2199    551               315313   315313   39401
     Sum       17587   17587   4405              2522465  2522465  315191
 


     bravais-lattice index     =            4
     lattice parameter (alat)  =      33.6810  a.u.
     unit-cell volume          =   26092.7434 (a.u.)^3
     number of atoms/cell      =           31
     number of atomic types    =            1
     number of electrons       =        93.00
     number of Kohn-Sham states=           56
     kinetic-energy cutoff     =      80.0000  Ry
     charge density cutoff     =     320.0000  Ry
     convergence threshold     =      1.0E-08
     mixing beta               =       0.4000
     number of iterations used =            8  plain     mixing
     Exchange-correlation      = PBE ( 1  4  3  4 0 0)

     celldm(1)=  33.680967  celldm(2)=   0.000000  celldm(3)=   1.122133
     celldm(4)=   0.000000  celldm(5)=   0.000000  celldm(6)=   0.000000

     crystal axes: (cart. coord. in units of alat)
               a(1) = (   0.838293   0.000454   0.000000 )  
               a(2) = (  -0.419541   0.725755   0.000000 )  
               a(3) = (   0.000000   0.000000   1.122133 )  

     reciprocal axes: (cart. coord. in units 2 pi/alat)
               b(1) = (  1.192527  0.689370  0.000000 )  
               b(2) = ( -0.000746  1.377444  0.000000 )  
               b(3) = (  0.000000  0.000000  0.891160 )  


     PseudoPot. # 1 for Al read from file:
     ./Al.upf
     MD5 check sum: 4974d48a734c9d7d1eb6780a1419d19d
     Pseudo is Norm-conserving + core correction, Zval =  3.0
     Generated using ONCVPSP code by D. R. Hamann
     Using radial grid of 1876 points,  6 beta functions with: 
                l(1) =   0
                l(2) =   0
                l(3) =   1
                l(4) =   1
                l(5) =   2
                l(6) =   2

     atomic species   valence    mass     pseudopotential
        Al             3.00    29.98200     Al( 1.00)

      2 Sym. Ops. (no inversion) found



   Cartesian axes

     site n.     atom                  positions (alat units)
         1           Al  tau(   1) = (  -0.0338800   0.1131732   0.0000000  )
         2           Al  tau(   2) = (   0.1148673   0.0898487   0.0000000  )
         3           Al  tau(   3) = (  -0.0880247   0.2536573   0.0000000  )
         4           Al  tau(   4) = (   0.0607131   0.2303220   0.0000000  )
         5           Al  tau(   5) = (  -0.1421744   0.3941503   0.0000000  )
         6           Al  tau(   6) = (   0.0065626   0.3708032   0.0000000  )
         7           Al  tau(   7) = (  -0.3992503   0.6984509   0.0000000  )
         8           Al  tau(   8) = (  -0.1963353   0.5346384   0.0000000  )
         9           Al  tau(   9) = (   0.1690375  -0.0506289   0.0000000  )
        10           Al  tau(  10) = (   0.2636123   0.0665137   0.0000000  )
        11           Al  tau(  11) = (   0.1553113   0.3474625   0.0000000  )
        12           Al  tau(  12) = (   0.2094589   0.2069900   0.0000000  )
        13           Al  tau(  13) = (  -0.0475948   0.5112911   0.0000000  )
        14           Al  tau(  14) = (   0.1011495   0.4879397   0.0000000  )
        15           Al  tau(  15) = (  -0.1017622   0.6517804   0.0000000  )
        16           Al  tau(  16) = (   0.0469772   0.6284271   0.0000000  )
        17           Al  tau(  17) = (   0.4123546   0.0431628   0.0000000  )
        18           Al  tau(  18) = (   0.5069432   0.1603048   0.0000000  )
        19           Al  tau(  19) = (   0.3040615   0.3241248   0.0000000  )
        20           Al  tau(  20) = (   0.3582090   0.1836483   0.0000000  )
        21           Al  tau(  21) = (   0.2498986   0.4646023   0.0000000  )
        22           Al  tau(  22) = (   0.3986477   0.4412746   0.0000000  )
        23           Al  tau(  23) = (   0.1415555   0.7455681   0.0000000  )
        24           Al  tau(  24) = (   0.1957249   0.6050814   0.0000000  )
        25           Al  tau(  25) = (   0.6556767   0.1369609   0.0000000  )
        26           Al  tau(  26) = (   0.4528021   0.3007932   0.0000000  )
        27           Al  tau(  27) = (   0.6015368   0.2774528   0.0000000  )
        28           Al  tau(  28) = (   0.4932181   0.5584284   0.0000000  )
        29           Al  tau(  29) = (   0.5473877   0.4179392   0.0000000  )
        30           Al  tau(  30) = (   0.2902952   0.7222309   0.0000000  )
        31           Al  tau(  31) = (   0.3444734   0.5817504   0.0000000  )

     number of k points=     1  Methfessel-Paxton smearing, width (Ry)=  0.0500
                       cart. coord. in units 2pi/alat
        k(    1) = (   0.0000000   0.0000000   0.0000000), wk =   2.0000000

     Dense  grid:  2522465 G-vectors     FFT dimensions: ( 162, 162, 216)

     Estimated max dynamical RAM per process >     839.96 MB

     Estimated total dynamical RAM >       6.56 GB

     Initial potential from superposition of free atoms

     starting charge   92.92414, renormalised to   93.00000

     negative rho (up, down):  7.270E-05 0.000E+00
     Starting wfcs are  124 randomized atomic wfcs

     total cpu time spent up to now is    68931.5 secs

     Self-consistent Calculation

     iteration #  1     ecut=    80.00 Ry     beta= 0.40
     Davidson diagonalization with overlap
     ethr =  1.00E-06,  avg # of iterations = 11.0

     negative rho (up, down):  1.174E-05 0.000E+00

     total cpu time spent up to now is    68986.1 secs

     total energy              =    -142.21843349 Ry
     Harris-Foulkes estimate   =    -142.58379098 Ry
     estimated scf accuracy    <       1.01235775 Ry

     iteration #  2     ecut=    80.00 Ry     beta= 0.40
     Davidson diagonalization with overlap
     ethr =  1.09E-03,  avg # of iterations =  1.0

     negative rho (up, down):  3.419E-06 0.000E+00

     total cpu time spent up to now is    69004.3 secs

     total energy              =    -142.25980600 Ry
     Harris-Foulkes estimate   =    -142.29575473 Ry
     estimated scf accuracy    <       0.10988359 Ry

     iteration #  3     ecut=    80.00 Ry     beta= 0.40
     Davidson diagonalization with overlap
     ethr =  1.18E-04,  avg # of iterations =  1.0

     negative rho (up, down):  2.312E-07 0.000E+00

     total cpu time spent up to now is    69022.2 secs

     total energy              =    -142.26910181 Ry
     Harris-Foulkes estimate   =    -142.27098607 Ry
     estimated scf accuracy    <       0.00857012 Ry

     iteration #  4     ecut=    80.00 Ry     beta= 0.40
     Davidson diagonalization with overlap
     ethr =  9.22E-06,  avg # of iterations =  2.0

     negative rho (up, down):  6.323E-08 0.000E+00

     total cpu time spent up to now is    69045.7 secs

     total energy              =    -142.26976814 Ry
     Harris-Foulkes estimate   =    -142.26981324 Ry
     estimated scf accuracy    <       0.00011845 Ry

     iteration #  5     ecut=    80.00 Ry     beta= 0.40
     Davidson diagonalization with overlap
     ethr =  1.27E-07,  avg # of iterations =  5.0

     negative rho (up, down):  4.488E-08 0.000E+00

     total cpu time spent up to now is    69081.1 secs

     total energy              =    -142.26987733 Ry
     Harris-Foulkes estimate   =    -142.26989428 Ry
     estimated scf accuracy    <       0.00008911 Ry

     iteration #  6     ecut=    80.00 Ry     beta= 0.40
     Davidson diagonalization with overlap
     ethr =  9.58E-08,  avg # of iterations =  3.0

     negative rho (up, down):  3.876E-08 0.000E+00

     total cpu time spent up to now is    69100.9 secs

     total energy              =    -142.26988331 Ry
     Harris-Foulkes estimate   =    -142.26988444 Ry
     estimated scf accuracy    <       0.00001548 Ry

     iteration #  7     ecut=    80.00 Ry     beta= 0.40
     Davidson diagonalization with overlap
     ethr =  1.66E-08,  avg # of iterations =  3.0

     total cpu time spent up to now is    69121.0 secs

     total energy              =    -142.26988322 Ry
     Harris-Foulkes estimate   =    -142.26988416 Ry
     estimated scf accuracy    <       0.00000936 Ry

     iteration #  8     ecut=    80.00 Ry     beta= 0.40
     Davidson diagonalization with overlap
     ethr =  1.01E-08,  avg # of iterations =  4.0

     total cpu time spent up to now is    69146.2 secs

     total energy              =    -142.26988397 Ry
     Harris-Foulkes estimate   =    -142.26988773 Ry
     estimated scf accuracy    <       0.00001633 Ry

     iteration #  9     ecut=    80.00 Ry     beta= 0.40
     Davidson diagonalization with overlap
     ethr =  1.01E-08,  avg # of iterations =  1.0

     total cpu time spent up to now is    69164.7 secs

     total energy              =    -142.26988336 Ry
     Harris-Foulkes estimate   =    -142.26988456 Ry
     estimated scf accuracy    <       0.00000432 Ry

     iteration # 10     ecut=    80.00 Ry     beta= 0.40
     Davidson diagonalization with overlap
     ethr =  4.64E-09,  avg # of iterations =  4.0

     total cpu time spent up to now is    69186.1 secs

     total energy              =    -142.26988366 Ry
     Harris-Foulkes estimate   =    -142.26988376 Ry
     estimated scf accuracy    <       0.00000033 Ry

     iteration # 11     ecut=    80.00 Ry     beta= 0.40
     Davidson diagonalization with overlap
     ethr =  3.57E-10,  avg # of iterations =  6.0

     total cpu time spent up to now is    69222.5 secs

     total energy              =    -142.26988380 Ry
     Harris-Foulkes estimate   =    -142.26988386 Ry
     estimated scf accuracy    <       0.00000042 Ry

     iteration # 12     ecut=    80.00 Ry     beta= 0.40
     Davidson diagonalization with overlap
     ethr =  3.57E-10,  avg # of iterations =  4.0

     total cpu time spent up to now is    69244.3 secs

     total energy              =    -142.26988381 Ry
     Harris-Foulkes estimate   =    -142.26988382 Ry
     estimated scf accuracy    <       0.00000011 Ry

     iteration # 13     ecut=    80.00 Ry     beta= 0.40
     Davidson diagonalization with overlap
     ethr =  1.18E-10,  avg # of iterations =  5.0

     total cpu time spent up to now is    69266.5 secs

     total energy              =    -142.26988381 Ry
     Harris-Foulkes estimate   =    -142.26988381 Ry
     estimated scf accuracy    <       0.00000001 Ry

     iteration # 14     ecut=    80.00 Ry     beta= 0.40
     Davidson diagonalization with overlap
     ethr =  1.59E-11,  avg # of iterations =  5.0

     total cpu time spent up to now is    69289.6 secs

     End of self-consistent calculation

          k = 0.0000 0.0000 0.0000 (315191 PWs)   bands (ev):

   -11.6236 -10.7478 -10.7478 -10.7477 -10.7477 -10.7477 -10.7477  -9.0217
    -9.0216  -9.0216  -9.0216  -9.0216  -9.0216  -8.1738  -8.1738  -8.1738
    -8.1737  -8.1737  -8.1737  -5.7782  -5.7782  -5.7781  -5.7781  -5.7780
    -5.7780  -5.7076  -5.7076  -5.7075  -5.7075  -5.7075  -5.7074  -4.8691
    -4.0234  -4.0234  -4.0233  -4.0233  -4.0233  -4.0233  -3.7524  -3.7524
    -3.7523  -3.7520  -3.7520  -3.7519  -2.3346  -2.3345  -2.3345  -2.3345
    -2.3345  -2.3345  -1.8112  -1.8112  -1.8112  -1.8111  -1.8110  -1.8109

     the Fermi energy is    -2.4051 ev

!    total energy              =    -142.26988381 Ry
     Harris-Foulkes estimate   =    -142.26988381 Ry
     estimated scf accuracy    <          6.3E-09 Ry

     The total energy is the sum of the following terms:

     one-electron contribution =    -702.58351513 Ry
     hartree contribution      =     360.19475933 Ry
     xc contribution           =     -63.84996813 Ry
     ewald contribution        =     264.01550404 Ry
     smearing contrib. (-TS)   =      -0.04666392 Ry

     convergence has been achieved in  14 iterations

     Forces acting on atoms (cartesian axes, Ry/au):

     atom    1 type  1   force =     0.00002312    0.00000198    0.00000000
     atom    2 type  1   force =     0.00000273   -0.00001244    0.00000000
     atom    3 type  1   force =    -0.00000266    0.00000651    0.00000000
     atom    4 type  1   force =     0.00000258    0.00000333    0.00000000
     atom    5 type  1   force =     0.00000442   -0.00001460    0.00000000
     atom    6 type  1   force =     0.00000346    0.00000034    0.00000000
     atom    7 type  1   force =     0.00000080    0.00000299    0.00000000
     atom    8 type  1   force =    -0.00000442   -0.00000425    0.00000000
     atom    9 type  1   force =    -0.00000665   -0.00001808    0.00000000
     atom   10 type  1   force =     0.00001382   -0.00001221    0.00000000
     atom   11 type  1   force =    -0.00000699    0.00000488    0.00000000
     atom   12 type  1   force =     0.00001398   -0.00000500    0.00000000
     atom   13 type  1   force =    -0.00000315   -0.00000481    0.00000000
     atom   14 type  1   force =    -0.00000324    0.00001327    0.00000000
     atom   15 type  1   force =    -0.00000174   -0.00000231    0.00000000
     atom   16 type  1   force =     0.00001915    0.00000687    0.00000000
     atom   17 type  1   force =     0.00001635   -0.00000265    0.00000000
     atom   18 type  1   force =     0.00001094   -0.00000228    0.00000000
     atom   19 type  1   force =    -0.00001620    0.00001461    0.00000000
     atom   20 type  1   force =    -0.00001345    0.00000265    0.00000000
     atom   21 type  1   force =    -0.00000581    0.00000578    0.00000000
     atom   22 type  1   force =    -0.00001833   -0.00000425    0.00000000
     atom   23 type  1   force =     0.00000120    0.00000502    0.00000000
     atom   24 type  1   force =    -0.00000189    0.00000923    0.00000000
     atom   25 type  1   force =     0.00000863    0.00000742    0.00000000
     atom   26 type  1   force =    -0.00001028   -0.00000466    0.00000000
     atom   27 type  1   force =    -0.00000772   -0.00000759    0.00000000
     atom   28 type  1   force =    -0.00000021   -0.00001287    0.00000000
     atom   29 type  1   force =    -0.00002266    0.00001380    0.00000000
     atom   30 type  1   force =     0.00001348   -0.00000029    0.00000000
     atom   31 type  1   force =    -0.00000926    0.00000962    0.00000000

     Total force =     0.000077     Total SCF correction =     0.000083
     SCF correction compared to forces is large: reduce conv_thr to get better values


     Computing stress (Cartesian axis) and pressure

          total   stress  (Ry/bohr**3)                   (kbar)     P=    0.00
   0.00000005   0.00000000   0.00000000          0.01      0.00      0.00
   0.00000000   0.00000005   0.00000000          0.00      0.01      0.00
   0.00000000   0.00000000  -0.00000002          0.00      0.00     -0.00


     Writing output data file 25al_planar_2x2_vcr.save/
 
     init_run     :     46.36s CPU     52.60s WALL (       2 calls)
     electrons    :  47985.91s CPU  55593.74s WALL (     168 calls)
     update_pot   :   2735.15s CPU   2779.73s WALL (     166 calls)
     forces       :   2436.76s CPU   2525.61s WALL (     168 calls)
     stress       :   8063.97s CPU   8271.84s WALL (     168 calls)

     Called by init_run:
     wfcinit      :     25.06s CPU     30.46s WALL (       2 calls)
     potinit      :      7.62s CPU      8.06s WALL (       2 calls)
     hinit0       :      8.91s CPU      9.15s WALL (       2 calls)

     Called by electrons:
     c_bands      :  39785.07s CPU  45827.09s WALL (    1637 calls)
     sum_band     :   5630.27s CPU   6705.16s WALL (    1637 calls)
     v_of_rho     :   2137.33s CPU   2465.16s WALL (    1771 calls)
     mix_rho      :    474.17s CPU    619.05s WALL (    1637 calls)

     Called by c_bands:
     init_us_2    :    561.85s CPU    585.12s WALL (    3276 calls)
     cegterg      :  35079.47s CPU  41090.03s WALL (    1638 calls)

     Called by sum_band:

     Called by *egterg:
     h_psi        :  30694.57s CPU  36517.70s WALL (   10792 calls)
     g_psi        :     87.81s CPU     89.97s WALL (    9152 calls)
     cdiaghg      :     82.39s CPU     83.69s WALL (   10589 calls)

     Called by h_psi:
     h_psi:pot    :  30633.59s CPU  36358.94s WALL (   10792 calls)
     h_psi:calbec :   3663.25s CPU   3716.88s WALL (   10792 calls)
     vloc_psi     :  23837.60s CPU  29497.04s WALL (   10792 calls)
     add_vuspsi   :   3132.60s CPU   3144.94s WALL (   10792 calls)

     General routines
     calbec       :   4202.48s CPU   4264.30s WALL (   11632 calls)
     fft          :   2075.46s CPU   2334.19s WALL (   22110 calls)
     ffts         :    138.95s CPU    158.72s WALL (    1637 calls)
     fftw         :  25705.81s CPU  32202.96s WALL (  646918 calls)
 
     Parallel routines
     fft_scatt_xy :   3648.49s CPU   5027.65s WALL (  670665 calls)
     fft_scatt_yz :  14607.81s CPU  15885.16s WALL (  670665 calls)
 
     PWSCF        :    17h 1m CPU        1h19m WALL

      15h
 
   This run was terminated on:   4:24:22  27Nov2020            

=------------------------------------------------------------------------------=
   JOB DONE.
=------------------------------------------------------------------------------=
