
     Program PWSCF v.6.3MaX starts on 26Nov2020 at  9:14:27 

     This program is part of the open-source Quantum ESPRESSO suite
     for quantum simulation of materials; please cite
         "P. Giannozzi et al., J. Phys.:Condens. Matter 21 395502 (2009);
         "P. Giannozzi et al., J. Phys.:Condens. Matter 29 465901 (2017);
          URL http://www.quantum-espresso.org", 
     in publications or presentations arising from this work. More details at
     http://www.quantum-espresso.org/quote

     Parallel version (MPI), running on     8 processors

     MPI processes distributed on     2 nodes
     R & G space division:  proc/nbgrp/npool/nimage =       8
     Waiting for input...
     Reading input from standard input

     Current dimensions of program PWSCF are:
     Max number of different atomic species (ntypx) = 10
     Max number of k-points (npk) =  40000
     Max angular momentum in pseudopotentials (lmaxx) =  3

     Subspace diagonalization in iterative solution of the eigenvalue problem:
     a serial algorithm will be used

 
     Parallelization info
     --------------------
     sticks:   dense  smooth     PW     G-vecs:    dense   smooth      PW
     Min        3123    3123    778               448599   448599   56048
     Max        3124    3124    779               448604   448604   56052
     Sum       24985   24985   6229              3588803  3588803  448403
 


     bravais-lattice index     =            4
     lattice parameter (alat)  =      33.6810  a.u.
     unit-cell volume          =   37130.3117 (a.u.)^3
     number of atoms/cell      =           31
     number of atomic types    =            1
     number of electrons       =        93.00
     number of Kohn-Sham states=           56
     kinetic-energy cutoff     =      80.0000  Ry
     charge density cutoff     =     320.0000  Ry
     convergence threshold     =      1.0E-06
     mixing beta               =       0.4000
     number of iterations used =            8  plain     mixing
     Exchange-correlation      = PBE ( 1  4  3  4 0 0)
     nstep                     =          300


     celldm(1)=  33.680967  celldm(2)=   0.000000  celldm(3)=   1.122133
     celldm(4)=   0.000000  celldm(5)=   0.000000  celldm(6)=   0.000000

     crystal axes: (cart. coord. in units of alat)
               a(1) = (   1.000000   0.000000   0.000000 )  
               a(2) = (  -0.500000   0.866025   0.000000 )  
               a(3) = (   0.000000   0.000000   1.122133 )  

     reciprocal axes: (cart. coord. in units 2 pi/alat)
               b(1) = (  1.000000  0.577350  0.000000 )  
               b(2) = (  0.000000  1.154701  0.000000 )  
               b(3) = (  0.000000  0.000000  0.891160 )  


     PseudoPot. # 1 for Al read from file:
     ./Al.upf
     MD5 check sum: 4974d48a734c9d7d1eb6780a1419d19d
     Pseudo is Norm-conserving + core correction, Zval =  3.0
     Generated using ONCVPSP code by D. R. Hamann
     Using radial grid of 1876 points,  6 beta functions with: 
                l(1) =   0
                l(2) =   0
                l(3) =   1
                l(4) =   1
                l(5) =   2
                l(6) =   2

     atomic species   valence    mass     pseudopotential
        Al             3.00    29.98200     Al( 1.00)

      4 Sym. Ops. (no inversion) found ( 2 have fractional translation)



   Cartesian axes

     site n.     atom                  positions (alat units)
         1           Al  tau(   1) = (  -0.0000000   0.1443393   0.0000000  )
         2           Al  tau(   2) = (   0.1250015   0.0721696   0.0000000  )
         3           Al  tau(   3) = (  -0.1249997   0.3608472   0.0000000  )
         4           Al  tau(   4) = (   0.0000018   0.2886775   0.0000000  )
         5           Al  tau(   5) = (  -0.2499994   0.5773550   0.0000000  )
         6           Al  tau(   6) = (  -0.1249979   0.5051854   0.0000000  )
         7           Al  tau(   7) = (  -0.3749991   0.7938629   0.0000000  )
         8           Al  tau(   8) = (  -0.2499976   0.7216932   0.0000000  )
         9           Al  tau(   9) = (   0.2500011   0.1443403   0.0000000  )
        10           Al  tau(  10) = (   0.3750027   0.0721706   0.0000000  )
        11           Al  tau(  11) = (   0.1250014   0.3608482   0.0000000  )
        12           Al  tau(  12) = (   0.2500030   0.2886785   0.0000000  )
        13           Al  tau(  13) = (   0.0000017   0.5773560   0.0000000  )
        14           Al  tau(  14) = (   0.1250033   0.5051864   0.0000000  )
        15           Al  tau(  15) = (  -0.1249980   0.7938639   0.0000000  )
        16           Al  tau(  16) = (   0.0000036   0.7216942   0.0000000  )
        17           Al  tau(  17) = (   0.5000023   0.1443413   0.0000000  )
        18           Al  tau(  18) = (   0.6250038   0.0721717   0.0000000  )
        19           Al  tau(  19) = (   0.3750026   0.3608492   0.0000000  )
        20           Al  tau(  20) = (   0.5000041   0.2886795   0.0000000  )
        21           Al  tau(  21) = (   0.2500029   0.5773571   0.0000000  )
        22           Al  tau(  22) = (   0.3750044   0.5051874   0.0000000  )
        23           Al  tau(  23) = (   0.1250032   0.7938649   0.0000000  )
        24           Al  tau(  24) = (   0.2500047   0.7216953   0.0000000  )
        25           Al  tau(  25) = (   0.7500035   0.1443423   0.0000000  )
        26           Al  tau(  26) = (   0.8750050   0.0721727   0.0000000  )
        27           Al  tau(  27) = (   0.7500053   0.2886805   0.0000000  )
        28           Al  tau(  28) = (   0.5000041   0.5773581   0.0000000  )
        29           Al  tau(  29) = (   0.6250056   0.5051884   0.0000000  )
        30           Al  tau(  30) = (   0.3750044   0.7938660   0.0000000  )
        31           Al  tau(  31) = (   0.5000059   0.7216963   0.0000000  )

     number of k points=     1  Methfessel-Paxton smearing, width (Ry)=  0.0500
                       cart. coord. in units 2pi/alat
        k(    1) = (   0.0000000   0.0000000   0.0000000), wk =   2.0000000

     Dense  grid:  3588803 G-vectors     FFT dimensions: ( 192, 192, 216)

     Estimated max dynamical RAM per process >       1.15 GB

     Estimated total dynamical RAM >       9.23 GB

     Initial potential from superposition of free atoms

     starting charge   92.92414, renormalised to   93.00000

     negative rho (up, down):  9.278E-05 0.000E+00
     Starting wfcs are  124 randomized atomic wfcs

     total cpu time spent up to now is       30.4 secs

     Self-consistent Calculation

     iteration #  1     ecut=    80.00 Ry     beta= 0.40
     Davidson diagonalization with overlap
     ethr =  1.00E-02,  avg # of iterations =  2.0

     negative rho (up, down):  7.334E-07 0.000E+00

     total cpu time spent up to now is       60.7 secs

     total energy              =    -140.64163439 Ry
     Harris-Foulkes estimate   =    -141.23604155 Ry
     estimated scf accuracy    <       1.54959149 Ry

     iteration #  2     ecut=    80.00 Ry     beta= 0.40
     Davidson diagonalization with overlap
     ethr =  1.67E-03,  avg # of iterations =  5.0

     negative rho (up, down):  3.555E-06 0.000E+00

     total cpu time spent up to now is       92.3 secs

     total energy              =    -140.21955811 Ry
     Harris-Foulkes estimate   =    -141.45940234 Ry
     estimated scf accuracy    <       6.74706033 Ry

     iteration #  3     ecut=    80.00 Ry     beta= 0.40
     Davidson diagonalization with overlap
     ethr =  1.67E-03,  avg # of iterations =  5.0

     negative rho (up, down):  4.012E-05 0.000E+00

     total cpu time spent up to now is      121.4 secs

     total energy              =    -140.82774426 Ry
     Harris-Foulkes estimate   =    -141.02293411 Ry
     estimated scf accuracy    <       1.16896532 Ry

     iteration #  4     ecut=    80.00 Ry     beta= 0.40
     Davidson diagonalization with overlap
     ethr =  1.26E-03,  avg # of iterations =  1.0

     negative rho (up, down):  6.667E-05 0.000E+00

     total cpu time spent up to now is      142.5 secs

     total energy              =    -140.89958493 Ry
     Harris-Foulkes estimate   =    -140.94449860 Ry
     estimated scf accuracy    <       0.15473864 Ry

     iteration #  5     ecut=    80.00 Ry     beta= 0.40
     Davidson diagonalization with overlap
     ethr =  1.66E-04,  avg # of iterations =  5.0

     negative rho (up, down):  7.646E-05 0.000E+00

     total cpu time spent up to now is      167.1 secs

     total energy              =    -140.91263733 Ry
     Harris-Foulkes estimate   =    -140.95629985 Ry
     estimated scf accuracy    <       0.31334085 Ry

     iteration #  6     ecut=    80.00 Ry     beta= 0.40
     Davidson diagonalization with overlap
     ethr =  1.66E-04,  avg # of iterations =  3.0

     negative rho (up, down):  1.024E-04 0.000E+00

     total cpu time spent up to now is      189.8 secs

     total energy              =    -140.93243457 Ry
     Harris-Foulkes estimate   =    -140.93469758 Ry
     estimated scf accuracy    <       0.00989728 Ry

     iteration #  7     ecut=    80.00 Ry     beta= 0.40
     Davidson diagonalization with overlap
     ethr =  1.06E-05,  avg # of iterations = 11.0

     negative rho (up, down):  1.249E-04 0.000E+00

     total cpu time spent up to now is      227.2 secs

     total energy              =    -140.93540586 Ry
     Harris-Foulkes estimate   =    -140.93684111 Ry
     estimated scf accuracy    <       0.00693945 Ry

     iteration #  8     ecut=    80.00 Ry     beta= 0.40
     Davidson diagonalization with overlap
     ethr =  7.46E-06,  avg # of iterations =  3.0

     negative rho (up, down):  1.311E-04 0.000E+00

     total cpu time spent up to now is      250.9 secs

     total energy              =    -140.93524520 Ry
     Harris-Foulkes estimate   =    -140.93711737 Ry
     estimated scf accuracy    <       0.01261797 Ry

     iteration #  9     ecut=    80.00 Ry     beta= 0.40
     Davidson diagonalization with overlap
     ethr =  7.46E-06,  avg # of iterations =  3.0

     negative rho (up, down):  1.325E-04 0.000E+00

     total cpu time spent up to now is      272.0 secs

     total energy              =    -140.93585589 Ry
     Harris-Foulkes estimate   =    -140.93623151 Ry
     estimated scf accuracy    <       0.00208445 Ry

     iteration # 10     ecut=    80.00 Ry     beta= 0.40
     Davidson diagonalization with overlap
     ethr =  2.24E-06,  avg # of iterations =  4.0

     negative rho (up, down):  1.347E-04 0.000E+00

     total cpu time spent up to now is      295.6 secs

     total energy              =    -140.93598291 Ry
     Harris-Foulkes estimate   =    -140.93607656 Ry
     estimated scf accuracy    <       0.00044704 Ry

     iteration # 11     ecut=    80.00 Ry     beta= 0.40
     Davidson diagonalization with overlap
     ethr =  4.81E-07,  avg # of iterations =  5.0

     negative rho (up, down):  1.358E-04 0.000E+00

     total cpu time spent up to now is      323.1 secs

     total energy              =    -140.93609391 Ry
     Harris-Foulkes estimate   =    -140.93612048 Ry
     estimated scf accuracy    <       0.00015132 Ry

     iteration # 12     ecut=    80.00 Ry     beta= 0.40
     Davidson diagonalization with overlap
     ethr =  1.63E-07,  avg # of iterations =  3.0

     negative rho (up, down):  1.363E-04 0.000E+00

     total cpu time spent up to now is      345.4 secs

     total energy              =    -140.93610233 Ry
     Harris-Foulkes estimate   =    -140.93611030 Ry
     estimated scf accuracy    <       0.00003543 Ry

     iteration # 13     ecut=    80.00 Ry     beta= 0.40
     Davidson diagonalization with overlap
     ethr =  3.81E-08,  avg # of iterations =  5.0

     negative rho (up, down):  1.367E-04 0.000E+00

     total cpu time spent up to now is      370.8 secs

     total energy              =    -140.93610531 Ry
     Harris-Foulkes estimate   =    -140.93611342 Ry
     estimated scf accuracy    <       0.00005230 Ry

     iteration # 14     ecut=    80.00 Ry     beta= 0.40
     Davidson diagonalization with overlap
     ethr =  3.81E-08,  avg # of iterations =  3.0

     negative rho (up, down):  1.368E-04 0.000E+00

     total cpu time spent up to now is      392.9 secs

     total energy              =    -140.93610862 Ry
     Harris-Foulkes estimate   =    -140.93610956 Ry
     estimated scf accuracy    <       0.00000286 Ry

     iteration # 15     ecut=    80.00 Ry     beta= 0.40
     Davidson diagonalization with overlap
     ethr =  3.08E-09,  avg # of iterations =  5.0

     negative rho (up, down):  1.370E-04 0.000E+00

     total cpu time spent up to now is      423.1 secs

     total energy              =    -140.93610868 Ry
     Harris-Foulkes estimate   =    -140.93610988 Ry
     estimated scf accuracy    <       0.00000797 Ry

     iteration # 16     ecut=    80.00 Ry     beta= 0.40
     Davidson diagonalization with overlap
     ethr =  3.08E-09,  avg # of iterations =  4.0

     negative rho (up, down):  1.371E-04 0.000E+00

     total cpu time spent up to now is      447.0 secs

     total energy              =    -140.93610894 Ry
     Harris-Foulkes estimate   =    -140.93610925 Ry
     estimated scf accuracy    <       0.00000174 Ry

     iteration # 17     ecut=    80.00 Ry     beta= 0.40
     Davidson diagonalization with overlap
     ethr =  1.87E-09,  avg # of iterations =  4.0

     negative rho (up, down):  1.372E-04 0.000E+00

     total cpu time spent up to now is      469.5 secs

     End of self-consistent calculation

          k = 0.0000 0.0000 0.0000 (448403 PWs)   bands (ev):

    -9.9528  -9.4482  -9.4332  -9.4328  -9.4260  -9.4255  -9.1459  -8.4049
    -8.4047  -8.3881  -8.3880  -8.3797  -8.3033  -8.2569  -8.2568  -7.5865
    -6.9324  -6.9323  -6.8232  -6.4866  -6.4772  -6.4771  -6.3701  -6.3700
    -5.4640  -4.8435  -4.8432  -4.8369  -4.7357  -4.7355  -4.4780  -4.4680
    -4.4428  -4.4427  -4.1227  -4.1222  -3.9778  -3.4711  -3.4689  -3.4686
    -3.4577  -3.4574  -3.4017  -3.2744  -3.2743  -3.2224  -3.2074  -2.9743
    -2.9653  -2.9651  -2.9389  -2.5198  -2.5195  -2.4501  -2.4484  -2.4314

     the Fermi energy is    -3.0910 ev

!    total energy              =    -140.93610871 Ry
     Harris-Foulkes estimate   =    -140.93610898 Ry
     estimated scf accuracy    <       0.00000030 Ry

     The total energy is the sum of the following terms:

     one-electron contribution =    -502.03539335 Ry
     hartree contribution      =     259.76236923 Ry
     xc contribution           =     -61.33567354 Ry
     ewald contribution        =     162.75359565 Ry
     smearing contrib. (-TS)   =      -0.08100671 Ry

     convergence has been achieved in  17 iterations

     negative rho (up, down):  1.372E-04 0.000E+00

     Forces acting on atoms (cartesian axes, Ry/au):

     atom    1 type  1   force =     0.00185844   -0.00106310    0.00000000
     atom    2 type  1   force =    -0.00000031   -0.00000018    0.00000000
     atom    3 type  1   force =     0.00258201    0.00221180    0.00000000
     atom    4 type  1   force =    -0.00370794    0.00394796    0.00000000
     atom    5 type  1   force =     0.00320648    0.00113019    0.00000000
     atom    6 type  1   force =    -0.00110013   -0.00063516    0.00000000
     atom    7 type  1   force =     0.00000855    0.00214100    0.00000000
     atom    8 type  1   force =     0.00156507   -0.00518515    0.00000000
     atom    9 type  1   force =    -0.00186403   -0.00107620    0.00000000
     atom   10 type  1   force =     0.00530695    0.00127150    0.00000000
     atom   11 type  1   force =    -0.00002635   -0.00230389    0.00000000
     atom   12 type  1   force =     0.00375463    0.00396020    0.00000000
     atom   13 type  1   force =     0.00109835    0.00063413    0.00000000
     atom   14 type  1   force =     0.00003808   -0.00052115    0.00000000
     atom   15 type  1   force =    -0.00200840    0.00112912    0.00000000
     atom   16 type  1   force =    -0.00043229    0.00029355    0.00000000
     atom   17 type  1   force =     0.00060897   -0.00329589    0.00000000
     atom   18 type  1   force =    -0.00000274    0.00133299    0.00000000
     atom   19 type  1   force =    -0.00254984    0.00217533    0.00000000
     atom   20 type  1   force =     0.01310002    0.00756330    0.00000000
     atom   21 type  1   force =    -0.00118735    0.00062257    0.00000000
     atom   22 type  1   force =     0.00115303   -0.00066887    0.00000000
     atom   23 type  1   force =    -0.00005451   -0.00133956    0.00000000
     atom   24 type  1   force =     0.00045640    0.00026350    0.00000000
     atom   25 type  1   force =    -0.00062686   -0.00327415    0.00000000
     atom   26 type  1   force =    -0.00528010    0.00123743    0.00000000
     atom   27 type  1   force =    -0.01315354    0.00752811    0.00000000
     atom   28 type  1   force =    -0.00314893    0.00109420    0.00000000
     atom   29 type  1   force =    -0.00005724   -0.01515536    0.00000000
     atom   30 type  1   force =     0.00203200    0.00117317    0.00000000
     atom   31 type  1   force =    -0.00156840   -0.00519141    0.00000000

     Total force =     0.031212     Total SCF correction =     0.000446


     Computing stress (Cartesian axis) and pressure


     negative rho (up, down):  1.372E-04 0.000E+00
          total   stress  (Ry/bohr**3)                   (kbar)     P=   -0.57
  -0.00000580  -0.00000003   0.00000000         -0.85     -0.00      0.00
  -0.00000003  -0.00000577   0.00000000         -0.00     -0.85      0.00
   0.00000000   0.00000000  -0.00000000          0.00      0.00     -0.00


     BFGS Geometry Optimization

     number of scf cycles    =   1
     number of bfgs steps    =   0

     enthalpy new            =    -140.9361087145 Ry

     new trust radius        =       0.0151554670 bohr
     new conv_thr            =       0.0000010000 Ry

     new unit-cell volume =  37119.57198 a.u.^3 (  5500.55299 Ang^3 )
     density =      0.28059 g/cm^3

CELL_PARAMETERS (alat= 33.68096681)
   0.999854923  -0.000000769   0.000000000
  -0.499928128   0.865900917   0.000000000
   0.000000000   0.000000000   1.122132950

ATOMIC_POSITIONS (angstrom)
Al       0.000980737   2.571654446   0.000000000
Al       2.227602365   1.286106150   0.000000000
Al      -2.226210815   6.431695608   0.000000000
Al      -0.001933738   5.146503531   0.000000000
Al      -4.453454804  10.289431742   0.000000000
Al      -2.228128334   9.002387009   0.000000000
Al      -6.682721225  14.148274978   0.000000000
Al      -4.454292573  12.858288014   0.000000000
Al       4.454185537   2.571662281   0.000000000
Al       6.685584801   1.286793763   0.000000000
Al       2.227583461   6.429321120   0.000000000
Al       4.457189072   5.146524769   0.000000000
Al       0.000604146  10.289184044   0.000000000
Al       2.227648250   9.002462097   0.000000000
Al      -2.228614034  14.147754358   0.000000000
Al      -0.000175015  12.861201567   0.000000000
Al       8.910668366   2.570502604   0.000000000
Al      11.137949803   1.286841063   0.000000000
Al       6.681422640   6.431705848   0.000000000
Al       8.917308082   5.148445934   0.000000000
Al       4.454569141  10.289192695   0.000000000
Al       6.683412535   9.002398704   0.000000000
Al       2.227594134  14.146462939   0.000000000
Al       4.455469552  12.861200436   0.000000000
Al      13.365188850   2.570528873   0.000000000
Al      15.590331914   1.286805271   0.000000000
Al      13.358591673   5.148442093   0.000000000
Al       8.908705630  10.289457001   0.000000000
Al      11.137946550   8.994748656   0.000000000
Al       6.683872466  14.147807196   0.000000000
Al       8.909572592  12.858329003   0.000000000



     Writing output data file 27al_planar_2x2_vcr.save/
     NEW-OLD atomic charge density approx. for the potential

     negative rho (up, down):  1.372E-04 0.000E+00
     extrapolated charge   92.97311, renormalised to   93.00000

     total cpu time spent up to now is      543.7 secs

     Self-consistent Calculation

     iteration #  1     ecut=    80.00 Ry     beta= 0.40
     Davidson diagonalization with overlap
     ethr =  1.00E-06,  avg # of iterations =  4.0

     negative rho (up, down):  1.373E-04 0.000E+00

     total cpu time spent up to now is      572.9 secs

     total energy              =    -140.93705177 Ry
     Harris-Foulkes estimate   =    -141.07016381 Ry
     estimated scf accuracy    <       0.00010023 Ry

     iteration #  2     ecut=    80.00 Ry     beta= 0.40
     Davidson diagonalization with overlap
     ethr =  1.08E-07,  avg # of iterations =  5.0

     negative rho (up, down):  1.373E-04 0.000E+00

     total cpu time spent up to now is      603.8 secs

     total energy              =    -140.93699934 Ry
     Harris-Foulkes estimate   =    -140.93723977 Ry
     estimated scf accuracy    <       0.00199047 Ry

     iteration #  3     ecut=    80.00 Ry     beta= 0.40
     Davidson diagonalization with overlap
     ethr =  1.08E-07,  avg # of iterations =  5.0

     negative rho (up, down):  1.373E-04 0.000E+00

     total cpu time spent up to now is      632.5 secs

     total energy              =    -140.93711002 Ry
     Harris-Foulkes estimate   =    -140.93711284 Ry
     estimated scf accuracy    <       0.00001219 Ry

     iteration #  4     ecut=    80.00 Ry     beta= 0.40
     Davidson diagonalization with overlap
     ethr =  1.31E-08,  avg # of iterations =  4.0

     negative rho (up, down):  1.372E-04 0.000E+00

     total cpu time spent up to now is      657.9 secs

     total energy              =    -140.93710956 Ry
     Harris-Foulkes estimate   =    -140.93711262 Ry
     estimated scf accuracy    <       0.00001322 Ry

     iteration #  5     ecut=    80.00 Ry     beta= 0.40
     Davidson diagonalization with overlap
     ethr =  1.31E-08,  avg # of iterations =  4.0

     negative rho (up, down):  1.371E-04 0.000E+00

     total cpu time spent up to now is      681.2 secs

     total energy              =    -140.93711071 Ry
     Harris-Foulkes estimate   =    -140.93711264 Ry
     estimated scf accuracy    <       0.00001414 Ry

     iteration #  6     ecut=    80.00 Ry     beta= 0.40
     Davidson diagonalization with overlap
     ethr =  1.31E-08,  avg # of iterations =  3.0

     negative rho (up, down):  1.371E-04 0.000E+00

     total cpu time spent up to now is      702.7 secs

     total energy              =    -140.93711161 Ry
     Harris-Foulkes estimate   =    -140.93711188 Ry
     estimated scf accuracy    <       0.00000120 Ry

     iteration #  7     ecut=    80.00 Ry     beta= 0.40
     Davidson diagonalization with overlap
     ethr =  1.29E-09,  avg # of iterations =  5.0

     negative rho (up, down):  1.371E-04 0.000E+00

     total cpu time spent up to now is      729.5 secs

     total energy              =    -140.93711159 Ry
     Harris-Foulkes estimate   =    -140.93711207 Ry
     estimated scf accuracy    <       0.00000358 Ry

     iteration #  8     ecut=    80.00 Ry     beta= 0.40
     Davidson diagonalization with overlap
     ethr =  1.29E-09,  avg # of iterations =  3.0

     negative rho (up, down):  1.371E-04 0.000E+00

     total cpu time spent up to now is      751.1 secs

     End of self-consistent calculation

          k = 0.0000 0.0000 0.0000 (448403 PWs)   bands (ev):

    -9.9534  -9.4486  -9.4338  -9.4333  -9.4257  -9.4252  -9.1440  -8.4041
    -8.4041  -8.3846  -8.3845  -8.3829  -8.3051  -8.2546  -8.2544  -7.5853
    -6.9324  -6.9323  -6.8230  -6.4825  -6.4777  -6.4776  -6.3722  -6.3722
    -5.4694  -4.8397  -4.8395  -4.8351  -4.7366  -4.7365  -4.4766  -4.4673
    -4.4432  -4.4432  -4.1254  -4.1250  -3.9780  -3.4711  -3.4678  -3.4676
    -3.4584  -3.4581  -3.4000  -3.2732  -3.2731  -3.2211  -3.2176  -2.9705
    -2.9637  -2.9634  -2.9413  -2.5171  -2.5170  -2.4467  -2.4454  -2.4338

     the Fermi energy is    -3.0908 ev

!    total energy              =    -140.93711172 Ry
     Harris-Foulkes estimate   =    -140.93711176 Ry
     estimated scf accuracy    <       0.00000012 Ry

     The total energy is the sum of the following terms:

     one-electron contribution =    -502.12515080 Ry
     hartree contribution      =     259.80756268 Ry
     xc contribution           =     -61.33400593 Ry
     ewald contribution        =     162.79516979 Ry
     smearing contrib. (-TS)   =      -0.08068745 Ry

     convergence has been achieved in   8 iterations

     negative rho (up, down):  1.371E-04 0.000E+00

     Forces acting on atoms (cartesian axes, Ry/au):

     atom    1 type  1   force =     0.00138013   -0.00078533    0.00000000
     atom    2 type  1   force =    -0.00000833   -0.00000481    0.00000000
     atom    3 type  1   force =     0.00140464    0.00164112    0.00000000
     atom    4 type  1   force =    -0.00324696    0.00321800    0.00000000
     atom    5 type  1   force =     0.00212357    0.00039589    0.00000000
     atom    6 type  1   force =    -0.00079254   -0.00045757    0.00000000
     atom    7 type  1   force =     0.00000994    0.00158789    0.00000000
     atom    8 type  1   force =     0.00116339   -0.00442095    0.00000000
     atom    9 type  1   force =    -0.00137759   -0.00079535    0.00000000
     atom   10 type  1   force =     0.00445044    0.00124030    0.00000000
     atom   11 type  1   force =    -0.00003057   -0.00225816    0.00000000
     atom   12 type  1   force =     0.00329935    0.00323404    0.00000000
     atom   13 type  1   force =     0.00088560    0.00051130    0.00000000
     atom   14 type  1   force =     0.00001371   -0.00073955    0.00000000
     atom   15 type  1   force =    -0.00197091    0.00110261    0.00000000
     atom   16 type  1   force =    -0.00063362    0.00038165    0.00000000
     atom   17 type  1   force =     0.00069621   -0.00199711    0.00000000
     atom   18 type  1   force =    -0.00001057    0.00096862    0.00000000
     atom   19 type  1   force =    -0.00138144    0.00160150    0.00000000
     atom   20 type  1   force =     0.01296210    0.00748367    0.00000000
     atom   21 type  1   force =    -0.00094892    0.00051074    0.00000000
     atom   22 type  1   force =     0.00083356   -0.00049346    0.00000000
     atom   23 type  1   force =    -0.00003215   -0.00107716    0.00000000
     atom   24 type  1   force =     0.00065867    0.00038029    0.00000000
     atom   25 type  1   force =    -0.00071003   -0.00198442    0.00000000
     atom   26 type  1   force =    -0.00442445    0.00119684    0.00000000
     atom   27 type  1   force =    -0.01299863    0.00745502    0.00000000
     atom   28 type  1   force =    -0.00207357    0.00037731    0.00000000
     atom   29 type  1   force =    -0.00004308   -0.01498465    0.00000000
     atom   30 type  1   force =     0.00197775    0.00114186    0.00000000
     atom   31 type  1   force =    -0.00117573   -0.00443010    0.00000000

     Total force =     0.029283     Total SCF correction =     0.000219


     Computing stress (Cartesian axis) and pressure


     negative rho (up, down):  1.371E-04 0.000E+00
          total   stress  (Ry/bohr**3)                   (kbar)     P=   -0.58
  -0.00000593  -0.00000003   0.00000000         -0.87     -0.00      0.00
  -0.00000003  -0.00000590   0.00000000         -0.00     -0.87      0.00
  -0.00000000  -0.00000000   0.00000001         -0.00     -0.00      0.00


     number of scf cycles    =   2
     number of bfgs steps    =   1

     enthalpy old            =    -140.9361087145 Ry
     enthalpy new            =    -140.9371117159 Ry

     CASE: enthalpy_new < enthalpy_old


     WARNING: bfgs curvature condition failed, Theta= 0.854
     new trust radius        =       0.0227299224 bohr
     new conv_thr            =       0.0000010000 Ry

     new unit-cell volume =  37103.12618 a.u.^3 (  5498.11598 Ang^3 )
     density =      0.28071 g/cm^3

CELL_PARAMETERS (alat= 33.68096681)
   0.999632812  -0.000001799   0.000000000
  -0.499817964   0.865710108   0.000000000
   0.000000000   0.000000000   1.122132950

ATOMIC_POSITIONS (angstrom)
Al       0.002228842   2.570372650   0.000000000
Al       2.227102022   1.285817277   0.000000000
Al      -2.224235648   6.431764921   0.000000000
Al      -0.004675780   5.148163810   0.000000000
Al      -4.450443709  10.287706767   0.000000000
Al      -2.228371214   8.999979545   0.000000000
Al      -6.681243763  14.146595899   0.000000000
Al      -4.452262273  12.851682338   0.000000000
Al       4.451941955   2.570366940   0.000000000
Al       6.687919645   1.287503197   0.000000000
Al       2.227058883   6.426079825   0.000000000
Al       4.458970882   5.148192078   0.000000000
Al       0.001366944  10.287357201   0.000000000
Al       2.227162625   8.999947480   0.000000000
Al      -2.229719883  14.145519837   0.000000000
Al      -0.000632066  12.858637449   0.000000000
Al       8.909215492   2.567927190   0.000000000
Al      11.135468229   1.287432118   0.000000000
Al       6.678465836   6.431735309   0.000000000
Al       8.925721096   5.153303182   0.000000000
Al       4.452736903  10.287357405   0.000000000
Al       6.682683616   8.999954055   0.000000000
Al       2.227052098  14.142392944   0.000000000
Al       4.454930115  12.858621747   0.000000000
Al      13.361675691   2.567961810   0.000000000
Al      15.583066989   1.287473732   0.000000000
Al      13.345185116   5.153269896   0.000000000
Al       8.904725916  10.287698019   0.000000000
Al      11.135424277   8.980724316   0.000000000
Al       6.683970115  14.145596321   0.000000000
Al       8.906519033  12.851703139   0.000000000



     Writing output data file 27al_planar_2x2_vcr.save/
     NEW-OLD atomic charge density approx. for the potential

     negative rho (up, down):  1.371E-04 0.000E+00
     extrapolated charge   92.95881, renormalised to   93.00000

     total cpu time spent up to now is      824.4 secs

     Self-consistent Calculation

     iteration #  1     ecut=    80.00 Ry     beta= 0.40
     Davidson diagonalization with overlap
     ethr =  1.00E-06,  avg # of iterations =  4.0

     Threshold (ethr) on eigenvalues was too large:
     Diagonalizing with lowered threshold

     Davidson diagonalization with overlap
     ethr =  8.91E-08,  avg # of iterations =  4.0

     negative rho (up, down):  1.374E-04 0.000E+00

     total cpu time spent up to now is      878.7 secs

     total energy              =    -140.93843384 Ry
     Harris-Foulkes estimate   =    -141.14237157 Ry
     estimated scf accuracy    <       0.00009440 Ry

     iteration #  2     ecut=    80.00 Ry     beta= 0.40
     Davidson diagonalization with overlap
     ethr =  1.02E-07,  avg # of iterations =  5.0

     negative rho (up, down):  1.373E-04 0.000E+00

     total cpu time spent up to now is      909.7 secs

     total energy              =    -140.93843061 Ry
     Harris-Foulkes estimate   =    -140.93853033 Ry
     estimated scf accuracy    <       0.00068525 Ry

     iteration #  3     ecut=    80.00 Ry     beta= 0.40
     Davidson diagonalization with overlap
     ethr =  1.02E-07,  avg # of iterations =  4.0

     negative rho (up, down):  1.373E-04 0.000E+00

     total cpu time spent up to now is      935.1 secs

     total energy              =    -140.93847597 Ry
     Harris-Foulkes estimate   =    -140.93848435 Ry
     estimated scf accuracy    <       0.00003623 Ry

     iteration #  4     ecut=    80.00 Ry     beta= 0.40
     Davidson diagonalization with overlap
     ethr =  3.90E-08,  avg # of iterations =  1.0

     negative rho (up, down):  1.372E-04 0.000E+00

     total cpu time spent up to now is      956.0 secs

     total energy              =    -140.93847893 Ry
     Harris-Foulkes estimate   =    -140.93848040 Ry
     estimated scf accuracy    <       0.00000872 Ry

     iteration #  5     ecut=    80.00 Ry     beta= 0.40
     Davidson diagonalization with overlap
     ethr =  9.37E-09,  avg # of iterations =  3.0

     negative rho (up, down):  1.371E-04 0.000E+00

     total cpu time spent up to now is      978.4 secs

     total energy              =    -140.93847833 Ry
     Harris-Foulkes estimate   =    -140.93848095 Ry
     estimated scf accuracy    <       0.00001222 Ry

     iteration #  6     ecut=    80.00 Ry     beta= 0.40
     Davidson diagonalization with overlap
     ethr =  9.37E-09,  avg # of iterations =  4.0

     negative rho (up, down):  1.370E-04 0.000E+00

     total cpu time spent up to now is     1002.2 secs

     total energy              =    -140.93847977 Ry
     Harris-Foulkes estimate   =    -140.93848097 Ry
     estimated scf accuracy    <       0.00001056 Ry

     iteration #  7     ecut=    80.00 Ry     beta= 0.40
     Davidson diagonalization with overlap
     ethr =  9.37E-09,  avg # of iterations =  1.0

     negative rho (up, down):  1.370E-04 0.000E+00

     total cpu time spent up to now is     1022.7 secs

     End of self-consistent calculation

          k = 0.0000 0.0000 0.0000 (448403 PWs)   bands (ev):

    -9.9541  -9.4491  -9.4358  -9.4354  -9.4241  -9.4237  -9.1416  -8.4034
    -8.4033  -8.3872  -8.3801  -8.3800  -8.3071  -8.2509  -8.2508  -7.5839
    -6.9325  -6.9323  -6.8227  -6.4781  -6.4779  -6.4768  -6.3751  -6.3750
    -5.4774  -4.8346  -4.8344  -4.8327  -4.7376  -4.7375  -4.4748  -4.4662
    -4.4436  -4.4436  -4.1294  -4.1290  -3.9783  -3.4711  -3.4671  -3.4668
    -3.4589  -3.4585  -3.3976  -3.2715  -3.2714  -3.2329  -3.2197  -2.9654
    -2.9612  -2.9609  -2.9437  -2.5134  -2.5133  -2.4421  -2.4410  -2.4368

     the Fermi energy is    -3.0906 ev

!    total energy              =    -140.93848029 Ry
     Harris-Foulkes estimate   =    -140.93848044 Ry
     estimated scf accuracy    <       0.00000030 Ry

     The total energy is the sum of the following terms:

     one-electron contribution =    -502.26085543 Ry
     hartree contribution      =     259.87456729 Ry
     xc contribution           =     -61.33149638 Ry
     ewald contribution        =     162.85946757 Ry
     smearing contrib. (-TS)   =      -0.08016333 Ry

     convergence has been achieved in   7 iterations

     negative rho (up, down):  1.370E-04 0.000E+00

     Forces acting on atoms (cartesian axes, Ry/au):

     atom    1 type  1   force =     0.00075991   -0.00042587    0.00000000
     atom    2 type  1   force =    -0.00000966   -0.00000558    0.00000000
     atom    3 type  1   force =    -0.00018623    0.00082322    0.00000000
     atom    4 type  1   force =    -0.00265142    0.00228787    0.00000000
     atom    5 type  1   force =     0.00061982   -0.00057289    0.00000000
     atom    6 type  1   force =    -0.00038627   -0.00022301    0.00000000
     atom    7 type  1   force =     0.00001114    0.00087104    0.00000000
     atom    8 type  1   force =     0.00065565   -0.00344014    0.00000000
     atom    9 type  1   force =    -0.00075916   -0.00043830    0.00000000
     atom   10 type  1   force =     0.00332611    0.00116695    0.00000000
     atom   11 type  1   force =    -0.00002053   -0.00219958    0.00000000
     atom   12 type  1   force =     0.00267366    0.00229702    0.00000000
     atom   13 type  1   force =     0.00059651    0.00034440    0.00000000
     atom   14 type  1   force =     0.00000833   -0.00103835    0.00000000
     atom   15 type  1   force =    -0.00191516    0.00108201    0.00000000
     atom   16 type  1   force =    -0.00089507    0.00052639    0.00000000
     atom   17 type  1   force =     0.00078846   -0.00021784    0.00000000
     atom   18 type  1   force =    -0.00000285    0.00047588    0.00000000
     atom   19 type  1   force =     0.00020557    0.00079175    0.00000000
     atom   20 type  1   force =     0.01281283    0.00739749    0.00000000
     atom   21 type  1   force =    -0.00065664    0.00033090    0.00000000
     atom   22 type  1   force =     0.00041070   -0.00024041    0.00000000
     atom   23 type  1   force =    -0.00004176   -0.00073412    0.00000000
     atom   24 type  1   force =     0.00091568    0.00052867    0.00000000
     atom   25 type  1   force =    -0.00078720   -0.00021125    0.00000000
     atom   26 type  1   force =    -0.00331050    0.00114862    0.00000000
     atom   27 type  1   force =    -0.01284380    0.00739898    0.00000000
     atom   28 type  1   force =    -0.00057655   -0.00057611    0.00000000
     atom   29 type  1   force =    -0.00001419   -0.01482255    0.00000000
     atom   30 type  1   force =     0.00193315    0.00111610    0.00000000
     atom   31 type  1   force =    -0.00066052   -0.00344129    0.00000000

     Total force =     0.027546     Total SCF correction =     0.000343


     Computing stress (Cartesian axis) and pressure


     negative rho (up, down):  1.370E-04 0.000E+00
          total   stress  (Ry/bohr**3)                   (kbar)     P=   -0.60
  -0.00000611  -0.00000002   0.00000000         -0.90     -0.00      0.00
  -0.00000002  -0.00000608   0.00000000         -0.00     -0.89      0.00
   0.00000000   0.00000000   0.00000001          0.00      0.00      0.00


     number of scf cycles    =   3
     number of bfgs steps    =   2

     enthalpy old            =    -140.9371117159 Ry
     enthalpy new            =    -140.9384802868 Ry

     CASE: enthalpy_new < enthalpy_old

     new trust radius        =       0.0340873500 bohr
     new conv_thr            =       0.0000010000 Ry

     new unit-cell volume =  37077.95019 a.u.^3 (  5494.38528 Ang^3 )
     density =      0.28090 g/cm^3

CELL_PARAMETERS (alat= 33.68096681)
   0.999292715  -0.000003346   0.000000000
  -0.499649255   0.865417896   0.000000000
   0.000000000   0.000000000   1.122132950

ATOMIC_POSITIONS (angstrom)
Al       0.003725472   2.568649815   0.000000000
Al       2.226335724   1.285374854   0.000000000
Al      -2.222236789   6.431323557   0.000000000
Al      -0.008439514   5.150063038   0.000000000
Al      -4.446819572  10.284450326   0.000000000
Al      -2.228473059   8.996448630   0.000000000
Al      -6.678980537  14.143545244   0.000000000
Al      -4.449492431  12.842265055   0.000000000
Al       4.448919415   2.568621863   0.000000000
Al       6.690705288   1.288518301   0.000000000
Al       2.226263502   6.421196459   0.000000000
Al       4.461242809   5.150096952   0.000000000
Al       0.002336701  10.284444963   0.000000000
Al       2.226417015   8.995923244   0.000000000
Al      -2.231339752  14.142064502   0.000000000
Al      -0.001483022  12.854795664   0.000000000
Al       8.907034260   2.565140403   0.000000000
Al      11.131674426   1.288009507   0.000000000
Al       6.674961802   6.431239669   0.000000000
Al       8.938263098   5.160544298   0.000000000
Al       4.450131896  10.284422902   0.000000000
Al       6.681286748   8.996379806   0.000000000
Al       2.226215192  14.136395989   0.000000000
Al       4.454252454  12.854758372   0.000000000
Al      13.356263290   2.565184178   0.000000000
Al      15.572725010   1.288444849   0.000000000
Al      13.325000593   5.160486667   0.000000000
Al       8.899614226  10.284399515   0.000000000
Al      11.131581934   8.959635591   0.000000000
Al       6.684055572  14.142173519   0.000000000
Al       8.902189055  12.842261127   0.000000000



     Writing output data file 27al_planar_2x2_vcr.save/
     NEW-OLD atomic charge density approx. for the potential

     negative rho (up, down):  1.370E-04 0.000E+00
     extrapolated charge   92.93690, renormalised to   93.00000

     total cpu time spent up to now is     1095.9 secs

     Self-consistent Calculation

     iteration #  1     ecut=    80.00 Ry     beta= 0.40
     Davidson diagonalization with overlap
     ethr =  1.00E-06,  avg # of iterations =  5.0

     negative rho (up, down):  1.374E-04 0.000E+00

     total cpu time spent up to now is     1131.8 secs

     total energy              =    -140.94022207 Ry
     Harris-Foulkes estimate   =    -141.25280704 Ry
     estimated scf accuracy    <       0.00021910 Ry

     iteration #  2     ecut=    80.00 Ry     beta= 0.40
     Davidson diagonalization with overlap
     ethr =  2.36E-07,  avg # of iterations =  5.0

     negative rho (up, down):  1.373E-04 0.000E+00

     total cpu time spent up to now is     1163.4 secs

     total energy              =    -140.94017807 Ry
     Harris-Foulkes estimate   =    -140.94054719 Ry
     estimated scf accuracy    <       0.00294304 Ry

     iteration #  3     ecut=    80.00 Ry     beta= 0.40
     Davidson diagonalization with overlap
     ethr =  2.36E-07,  avg # of iterations =  5.0

     negative rho (up, down):  1.372E-04 0.000E+00

     total cpu time spent up to now is     1190.6 secs

     total energy              =    -140.94034813 Ry
     Harris-Foulkes estimate   =    -140.94035985 Ry
     estimated scf accuracy    <       0.00005037 Ry

     iteration #  4     ecut=    80.00 Ry     beta= 0.40
     Davidson diagonalization with overlap
     ethr =  5.42E-08,  avg # of iterations =  4.0

     negative rho (up, down):  1.371E-04 0.000E+00

     total cpu time spent up to now is     1213.4 secs

     total energy              =    -140.94034594 Ry
     Harris-Foulkes estimate   =    -140.94035551 Ry
     estimated scf accuracy    <       0.00004047 Ry

     iteration #  5     ecut=    80.00 Ry     beta= 0.40
     Davidson diagonalization with overlap
     ethr =  4.35E-08,  avg # of iterations =  3.0

     negative rho (up, down):  1.370E-04 0.000E+00

     total cpu time spent up to now is     1236.6 secs

     total energy              =    -140.94034756 Ry
     Harris-Foulkes estimate   =    -140.94035693 Ry
     estimated scf accuracy    <       0.00006136 Ry

     iteration #  6     ecut=    80.00 Ry     beta= 0.40
     Davidson diagonalization with overlap
     ethr =  4.35E-08,  avg # of iterations =  1.0

     negative rho (up, down):  1.369E-04 0.000E+00

     total cpu time spent up to now is     1257.1 secs

     total energy              =    -140.94035223 Ry
     Harris-Foulkes estimate   =    -140.94035282 Ry
     estimated scf accuracy    <       0.00000351 Ry

     iteration #  7     ecut=    80.00 Ry     beta= 0.40
     Davidson diagonalization with overlap
     ethr =  3.77E-09,  avg # of iterations =  5.0

     negative rho (up, down):  1.369E-04 0.000E+00

     total cpu time spent up to now is     1285.8 secs

     total energy              =    -140.94035281 Ry
     Harris-Foulkes estimate   =    -140.94035349 Ry
     estimated scf accuracy    <       0.00000465 Ry

     iteration #  8     ecut=    80.00 Ry     beta= 0.40
     Davidson diagonalization with overlap
     ethr =  3.77E-09,  avg # of iterations =  1.0

     negative rho (up, down):  1.368E-04 0.000E+00

     total cpu time spent up to now is     1307.3 secs

     End of self-consistent calculation

          k = 0.0000 0.0000 0.0000 (448403 PWs)   bands (ev):

    -9.9554  -9.4503  -9.4390  -9.4387  -9.4214  -9.4210  -9.1387  -8.4027
    -8.4026  -8.3923  -8.3747  -8.3745  -8.3101  -8.2453  -8.2452  -7.5821
    -6.9328  -6.9326  -6.8231  -6.4783  -6.4782  -6.4694  -6.3785  -6.3783
    -5.4888  -4.8294  -4.8277  -4.8276  -4.7382  -4.7382  -4.4723  -4.4645
    -4.4445  -4.4445  -4.1354  -4.1349  -3.9788  -3.4715  -3.4672  -3.4667
    -3.4583  -3.4578  -3.3939  -3.2689  -3.2688  -3.2557  -3.2180  -2.9603
    -2.9576  -2.9573  -2.9442  -2.5084  -2.5083  -2.4404  -2.4361  -2.4355

     the Fermi energy is    -3.0903 ev

!    total energy              =    -140.94035273 Ry
     Harris-Foulkes estimate   =    -140.94035318 Ry
     estimated scf accuracy    <       0.00000072 Ry

     The total energy is the sum of the following terms:

     one-electron contribution =    -502.47143090 Ry
     hartree contribution      =     259.98006385 Ry
     xc contribution           =     -61.32850831 Ry
     ewald contribution        =     162.95884801 Ry
     smearing contrib. (-TS)   =      -0.07932538 Ry

     convergence has been achieved in   8 iterations

     negative rho (up, down):  1.368E-04 0.000E+00

     Forces acting on atoms (cartesian axes, Ry/au):

     atom    1 type  1   force =    -0.00002583    0.00005418    0.00000000
     atom    2 type  1   force =    -0.00000067   -0.00000039    0.00000000
     atom    3 type  1   force =    -0.00224424   -0.00025707    0.00000000
     atom    4 type  1   force =    -0.00186987    0.00110358    0.00000000
     atom    5 type  1   force =    -0.00134475   -0.00181504    0.00000000
     atom    6 type  1   force =     0.00010100    0.00005831    0.00000000
     atom    7 type  1   force =     0.00003401   -0.00004946    0.00000000
     atom    8 type  1   force =     0.00002080   -0.00217114    0.00000000
     atom    9 type  1   force =     0.00003034    0.00001752    0.00000000
     atom   10 type  1   force =     0.00191803    0.00106562    0.00000000
     atom   11 type  1   force =    -0.00002112   -0.00214920    0.00000000
     atom   12 type  1   force =     0.00188187    0.00112825    0.00000000
     atom   13 type  1   force =     0.00027924    0.00016122    0.00000000
     atom   14 type  1   force =    -0.00001013   -0.00141816    0.00000000
     atom   15 type  1   force =    -0.00187182    0.00105630    0.00000000
     atom   16 type  1   force =    -0.00123323    0.00070030    0.00000000
     atom   17 type  1   force =     0.00088552    0.00208954    0.00000000
     atom   18 type  1   force =     0.00000046   -0.00011236    0.00000000
     atom   19 type  1   force =     0.00225236   -0.00027789    0.00000000
     atom   20 type  1   force =     0.01276995    0.00737274    0.00000000
     atom   21 type  1   force =    -0.00028960    0.00016505    0.00000000
     atom   22 type  1   force =    -0.00009708    0.00005658    0.00000000
     atom   23 type  1   force =    -0.00000186   -0.00033332    0.00000000
     atom   24 type  1   force =     0.00123516    0.00071312    0.00000000
     atom   25 type  1   force =    -0.00089790    0.00209855    0.00000000
     atom   26 type  1   force =    -0.00190516    0.00103149    0.00000000
     atom   27 type  1   force =    -0.01278002    0.00737042    0.00000000
     atom   28 type  1   force =     0.00136845   -0.00182688    0.00000000
     atom   29 type  1   force =    -0.00000704   -0.01475303    0.00000000
     atom   30 type  1   force =     0.00188242    0.00108682    0.00000000
     atom   31 type  1   force =    -0.00005928   -0.00216566    0.00000000

     Total force =     0.027065     Total SCF correction =     0.000532


     Computing stress (Cartesian axis) and pressure


     negative rho (up, down):  1.368E-04 0.000E+00
          total   stress  (Ry/bohr**3)                   (kbar)     P=   -0.62
  -0.00000635  -0.00000002   0.00000000         -0.93     -0.00      0.00
  -0.00000002  -0.00000632   0.00000000         -0.00     -0.93      0.00
   0.00000000   0.00000000   0.00000006          0.00      0.00      0.01


     number of scf cycles    =   4
     number of bfgs steps    =   3

     enthalpy old            =    -140.9384802868 Ry
     enthalpy new            =    -140.9403527319 Ry

     CASE: enthalpy_new < enthalpy_old

     new trust radius        =       0.0511137202 bohr
     new conv_thr            =       0.0000010000 Ry

     new unit-cell volume =  37039.73713 a.u.^3 (  5488.72269 Ang^3 )
     density =      0.28119 g/cm^3

CELL_PARAMETERS (alat= 33.68096681)
   0.998776307  -0.000005651   0.000000000
  -0.499393048   0.864974132   0.000000000
   0.000000000   0.000000000   1.122132950

ATOMIC_POSITIONS (angstrom)
Al       0.005565194   2.566300754   0.000000000
Al       2.225179217   1.284707145   0.000000000
Al      -2.220294764   6.430052298   0.000000000
Al      -0.013676277   5.152267937   0.000000000
Al      -4.442383043  10.278858441   0.000000000
Al      -2.228364275   8.991238546   0.000000000
Al      -6.675528580  14.138403655   0.000000000
Al      -4.445634872  12.828718090   0.000000000
Al       4.444765102   2.566223351   0.000000000
Al       6.694115680   1.289976419   0.000000000
Al       2.225055229   6.413855090   0.000000000
Al       4.464210771   5.152321361   0.000000000
Al       0.003634390  10.279921273   0.000000000
Al       2.225275138   8.989634476   0.000000000
Al      -2.233735243  14.136779416   0.000000000
Al      -0.002933735  12.849041799   0.000000000
Al       8.903751571   2.562146902   0.000000000
Al      11.125915822   1.288568684   0.000000000
Al       6.670728026   6.429893481   0.000000000
Al       8.957012036   5.171368984   0.000000000
Al       4.446384642  10.279878350   0.000000000
Al       6.678891706   8.991113084   0.000000000
Al       2.224972341  14.127513664   0.000000000
Al       4.453370727  12.848976397   0.000000000
Al      13.348004625   2.562207664   0.000000000
Al      15.557840254   1.289824014   0.000000000
Al      13.294660325   5.171267991   0.000000000
Al       8.892907173  10.278735493   0.000000000
Al      11.125748716   8.927969439   0.000000000
Al       6.684116906  14.136936001   0.000000000
Al       8.895941068  12.828680912   0.000000000



     Writing output data file 27al_planar_2x2_vcr.save/
     NEW-OLD atomic charge density approx. for the potential

     negative rho (up, down):  1.369E-04 0.000E+00
     extrapolated charge   92.90413, renormalised to   93.00000

     total cpu time spent up to now is     1383.4 secs

     Self-consistent Calculation

     iteration #  1     ecut=    80.00 Ry     beta= 0.40
     Davidson diagonalization with overlap
     ethr =  1.00E-06,  avg # of iterations =  6.0

     negative rho (up, down):  1.375E-04 0.000E+00

     total cpu time spent up to now is     1422.7 secs

     total energy              =    -140.94275953 Ry
     Harris-Foulkes estimate   =    -141.41799939 Ry
     estimated scf accuracy    <       0.00035095 Ry

     iteration #  2     ecut=    80.00 Ry     beta= 0.40
     Davidson diagonalization with overlap
     ethr =  3.77E-07,  avg # of iterations =  6.0

     negative rho (up, down):  1.373E-04 0.000E+00

     total cpu time spent up to now is     1454.8 secs

     total energy              =    -140.94277462 Ry
     Harris-Foulkes estimate   =    -140.94318737 Ry
     estimated scf accuracy    <       0.00299098 Ry

     iteration #  3     ecut=    80.00 Ry     beta= 0.40
     Davidson diagonalization with overlap
     ethr =  3.77E-07,  avg # of iterations =  4.0

     negative rho (up, down):  1.371E-04 0.000E+00

     total cpu time spent up to now is     1478.6 secs

     total energy              =    -140.94296192 Ry
     Harris-Foulkes estimate   =    -140.94299038 Ry
     estimated scf accuracy    <       0.00013007 Ry

     iteration #  4     ecut=    80.00 Ry     beta= 0.40
     Davidson diagonalization with overlap
     ethr =  1.40E-07,  avg # of iterations =  4.0

     negative rho (up, down):  1.369E-04 0.000E+00

     total cpu time spent up to now is     1500.6 secs

     total energy              =    -140.94296050 Ry
     Harris-Foulkes estimate   =    -140.94297850 Ry
     estimated scf accuracy    <       0.00008156 Ry

     iteration #  5     ecut=    80.00 Ry     beta= 0.40
     Davidson diagonalization with overlap
     ethr =  8.77E-08,  avg # of iterations =  4.0

     negative rho (up, down):  1.367E-04 0.000E+00

     total cpu time spent up to now is     1523.1 secs

     total energy              =    -140.94295993 Ry
     Harris-Foulkes estimate   =    -140.94298303 Ry
     estimated scf accuracy    <       0.00015077 Ry

     iteration #  6     ecut=    80.00 Ry     beta= 0.40
     Davidson diagonalization with overlap
     ethr =  8.77E-08,  avg # of iterations =  1.0

     negative rho (up, down):  1.366E-04 0.000E+00

     total cpu time spent up to now is     1543.0 secs

     total energy              =    -140.94297088 Ry
     Harris-Foulkes estimate   =    -140.94297209 Ry
     estimated scf accuracy    <       0.00000817 Ry

     iteration #  7     ecut=    80.00 Ry     beta= 0.40
     Davidson diagonalization with overlap
     ethr =  8.78E-09,  avg # of iterations =  5.0

     negative rho (up, down):  1.366E-04 0.000E+00

     total cpu time spent up to now is     1569.3 secs

     total energy              =    -140.94297222 Ry
     Harris-Foulkes estimate   =    -140.94297274 Ry
     estimated scf accuracy    <       0.00000365 Ry

     iteration #  8     ecut=    80.00 Ry     beta= 0.40
     Davidson diagonalization with overlap
     ethr =  3.92E-09,  avg # of iterations =  3.0

     negative rho (up, down):  1.366E-04 0.000E+00

     total cpu time spent up to now is     1590.2 secs

     total energy              =    -140.94297189 Ry
     Harris-Foulkes estimate   =    -140.94297235 Ry
     estimated scf accuracy    <       0.00000249 Ry

     iteration #  9     ecut=    80.00 Ry     beta= 0.40
     Davidson diagonalization with overlap
     ethr =  2.67E-09,  avg # of iterations =  4.0

     negative rho (up, down):  1.365E-04 0.000E+00

     total cpu time spent up to now is     1611.3 secs

     End of self-consistent calculation

          k = 0.0000 0.0000 0.0000 (448403 PWs)   bands (ev):

    -9.9568  -9.4513  -9.4437  -9.4433  -9.4168  -9.4165  -9.1346  -8.4017
    -8.4017  -8.3984  -8.3677  -8.3674  -8.3130  -8.2355  -8.2353  -7.5799
    -6.9331  -6.9329  -6.8233  -6.4775  -6.4775  -6.4587  -6.3819  -6.3818
    -5.5051  -4.8243  -4.8180  -4.8179  -4.7378  -4.7377  -4.4686  -4.4616
    -4.4449  -4.4449  -4.1435  -4.1431  -3.9792  -3.4715  -3.4688  -3.4684
    -3.4551  -3.4547  -3.3877  -3.2898  -3.2646  -3.2645  -3.2158  -2.9603
    -2.9516  -2.9513  -2.9354  -2.5009  -2.5009  -2.4445  -2.4285  -2.4277

     the Fermi energy is    -3.0894 ev

!    total energy              =    -140.94297178 Ry
     Harris-Foulkes estimate   =    -140.94297216 Ry
     estimated scf accuracy    <       0.00000061 Ry

     The total energy is the sum of the following terms:

     one-electron contribution =    -502.78890447 Ry
     hartree contribution      =     260.13565321 Ry
     xc contribution           =     -61.32360521 Ry
     ewald contribution        =     163.11178868 Ry
     smearing contrib. (-TS)   =      -0.07790400 Ry

     convergence has been achieved in   9 iterations

     negative rho (up, down):  1.365E-04 0.000E+00

     Forces acting on atoms (cartesian axes, Ry/au):

     atom    1 type  1   force =    -0.00103948    0.00060081    0.00000000
     atom    2 type  1   force =     0.00000647    0.00000374    0.00000000
     atom    3 type  1   force =    -0.00500829   -0.00170515    0.00000000
     atom    4 type  1   force =    -0.00082617   -0.00038550    0.00000000
     atom    5 type  1   force =    -0.00398085   -0.00348473    0.00000000
     atom    6 type  1   force =     0.00074034    0.00042744    0.00000000
     atom    7 type  1   force =     0.00000058   -0.00120062    0.00000000
     atom    8 type  1   force =    -0.00074694   -0.00052273    0.00000000
     atom    9 type  1   force =     0.00102908    0.00059414    0.00000000
     atom   10 type  1   force =     0.00009313    0.00089627    0.00000000
     atom   11 type  1   force =     0.00001150   -0.00209188    0.00000000
     atom   12 type  1   force =     0.00082275   -0.00036748    0.00000000
     atom   13 type  1   force =    -0.00014434   -0.00008334    0.00000000
     atom   14 type  1   force =    -0.00002931   -0.00190193    0.00000000
     atom   15 type  1   force =    -0.00180587    0.00105590    0.00000000
     atom   16 type  1   force =    -0.00166177    0.00092558    0.00000000
     atom   17 type  1   force =     0.00104231    0.00520095    0.00000000
     atom   18 type  1   force =    -0.00000529   -0.00082757    0.00000000
     atom   19 type  1   force =     0.00502531   -0.00169781    0.00000000
     atom   20 type  1   force =     0.01281885    0.00740097    0.00000000
     atom   21 type  1   force =     0.00017380   -0.00009875    0.00000000
     atom   22 type  1   force =    -0.00071935    0.00040920    0.00000000
     atom   23 type  1   force =     0.00000138    0.00019989    0.00000000
     atom   24 type  1   force =     0.00163187    0.00094216    0.00000000
     atom   25 type  1   force =    -0.00103181    0.00516546    0.00000000
     atom   26 type  1   force =    -0.00009404    0.00089165    0.00000000
     atom   27 type  1   force =    -0.01284435    0.00742692    0.00000000
     atom   28 type  1   force =     0.00395752   -0.00347631    0.00000000
     atom   29 type  1   force =     0.00000973   -0.01483699    0.00000000
     atom   30 type  1   force =     0.00184808    0.00106699    0.00000000
     atom   31 type  1   force =     0.00072517   -0.00052727    0.00000000

     Total force =     0.029370     Total SCF correction =     0.000519


     Computing stress (Cartesian axis) and pressure


     negative rho (up, down):  1.365E-04 0.000E+00
          total   stress  (Ry/bohr**3)                   (kbar)     P=   -0.65
  -0.00000670  -0.00000002   0.00000000         -0.99     -0.00      0.00
  -0.00000002  -0.00000668   0.00000000         -0.00     -0.98      0.00
  -0.00000000  -0.00000000   0.00000003         -0.00     -0.00      0.00


     number of scf cycles    =   5
     number of bfgs steps    =   4

     enthalpy old            =    -140.9403527319 Ry
     enthalpy new            =    -140.9429717799 Ry

     CASE: enthalpy_new < enthalpy_old

     new trust radius        =       0.0766311626 bohr
     new conv_thr            =       0.0000010000 Ry

     new unit-cell volume =  36982.04364 a.u.^3 (  5480.17339 Ang^3 )
     density =      0.28163 g/cm^3

CELL_PARAMETERS (alat= 33.68096681)
   0.997996223  -0.000008988   0.000000000
  -0.499005895   0.864303564   0.000000000
   0.000000000   0.000000000   1.122132950

ATOMIC_POSITIONS (angstrom)
Al       0.007895058   2.562981478   0.000000000
Al       2.223436823   1.283701174   0.000000000
Al      -2.218555160   6.427471816   0.000000000
Al      -0.021055498   5.154911776   0.000000000
Al      -4.436847680  10.269703483   0.000000000
Al      -2.227919069   8.983527778   0.000000000
Al      -6.670337926  14.130129259   0.000000000
Al      -4.440134552  12.809053852   0.000000000
Al       4.438928820   2.562853743   0.000000000
Al       6.698399763   1.292061469   0.000000000
Al       2.223252045   6.402848344   0.000000000
Al       4.468158518   5.154988933   0.000000000
Al       0.005403380  10.272974763   0.000000000
Al       2.223544097   8.979960775   0.000000000
Al      -2.237268632  14.128769416   0.000000000
Al      -0.005276603  12.840427785   0.000000000
Al       8.898838844   2.558988577   0.000000000
Al      11.117212456   1.289113864   0.000000000
Al       6.665536498   6.427218025   0.000000000
Al       8.985023848   5.187541584   0.000000000
Al       4.440936350  10.272887061   0.000000000
Al       6.675012163   8.983303102   0.000000000
Al       2.223093911  14.114339165   0.000000000
Al       4.452175725  12.840318626   0.000000000
Al      13.335498344   2.559047475   0.000000000
Al      15.536215697   1.291810779   0.000000000
Al      13.249125517   5.187390643   0.000000000
Al       8.883917253  10.269484730   0.000000000
Al      11.116943962   8.880473743   0.000000000
Al       6.684149484  14.128986945   0.000000000
Al       8.886849378  12.808960030   0.000000000



     Writing output data file 27al_planar_2x2_vcr.save/
     NEW-OLD atomic charge density approx. for the potential

     negative rho (up, down):  1.366E-04 0.000E+00
     extrapolated charge   92.85503, renormalised to   93.00000

     total cpu time spent up to now is     1683.2 secs

     Self-consistent Calculation

     iteration #  1     ecut=    80.00 Ry     beta= 0.40
     Davidson diagonalization with overlap
     ethr =  1.00E-06,  avg # of iterations =  8.0

     negative rho (up, down):  1.375E-04 0.000E+00

     total cpu time spent up to now is     1724.1 secs

     total energy              =    -140.94610777 Ry
     Harris-Foulkes estimate   =    -141.66568464 Ry
     estimated scf accuracy    <       0.00094914 Ry

     iteration #  2     ecut=    80.00 Ry     beta= 0.40
     Davidson diagonalization with overlap
     ethr =  1.02E-06,  avg # of iterations =  5.0

     negative rho (up, down):  1.373E-04 0.000E+00

     total cpu time spent up to now is     1756.2 secs

     total energy              =    -140.94595354 Ry
     Harris-Foulkes estimate   =    -140.94759236 Ry
     estimated scf accuracy    <       0.01305674 Ry

     iteration #  3     ecut=    80.00 Ry     beta= 0.40
     Davidson diagonalization with overlap
     ethr =  1.02E-06,  avg # of iterations = 19.0

     negative rho (up, down):  1.370E-04 0.000E+00

     total cpu time spent up to now is     1789.5 secs

     total energy              =    -140.94662879 Ry
     Harris-Foulkes estimate   =    -140.94668521 Ry
     estimated scf accuracy    <       0.00025649 Ry

     iteration #  4     ecut=    80.00 Ry     beta= 0.40
     Davidson diagonalization with overlap
     ethr =  2.76E-07,  avg # of iterations =  3.0

     negative rho (up, down):  1.369E-04 0.000E+00

     total cpu time spent up to now is     1812.3 secs

     total energy              =    -140.94662406 Ry
     Harris-Foulkes estimate   =    -140.94665554 Ry
     estimated scf accuracy    <       0.00015454 Ry

     iteration #  5     ecut=    80.00 Ry     beta= 0.40
     Davidson diagonalization with overlap
     ethr =  1.66E-07,  avg # of iterations =  4.0

     negative rho (up, down):  1.366E-04 0.000E+00

     total cpu time spent up to now is     1835.6 secs

     total energy              =    -140.94661328 Ry
     Harris-Foulkes estimate   =    -140.94666680 Ry
     estimated scf accuracy    <       0.00035032 Ry

     iteration #  6     ecut=    80.00 Ry     beta= 0.40
     Davidson diagonalization with overlap
     ethr =  1.66E-07,  avg # of iterations =  4.0

     negative rho (up, down):  1.362E-04 0.000E+00

     total cpu time spent up to now is     1858.1 secs

     total energy              =    -140.94663787 Ry
     Harris-Foulkes estimate   =    -140.94664270 Ry
     estimated scf accuracy    <       0.00002847 Ry

     iteration #  7     ecut=    80.00 Ry     beta= 0.40
     Davidson diagonalization with overlap
     ethr =  3.06E-08,  avg # of iterations =  3.0

     negative rho (up, down):  1.362E-04 0.000E+00

     total cpu time spent up to now is     1883.1 secs

     total energy              =    -140.94664187 Ry
     Harris-Foulkes estimate   =    -140.94664327 Ry
     estimated scf accuracy    <       0.00000729 Ry

     iteration #  8     ecut=    80.00 Ry     beta= 0.40
     Davidson diagonalization with overlap
     ethr =  7.84E-09,  avg # of iterations =  4.0

     negative rho (up, down):  1.361E-04 0.000E+00

     total cpu time spent up to now is     1909.2 secs

     total energy              =    -140.94664248 Ry
     Harris-Foulkes estimate   =    -140.94664371 Ry
     estimated scf accuracy    <       0.00000799 Ry

     iteration #  9     ecut=    80.00 Ry     beta= 0.40
     Davidson diagonalization with overlap
     ethr =  7.84E-09,  avg # of iterations =  2.0

     negative rho (up, down):  1.361E-04 0.000E+00

     total cpu time spent up to now is     1930.3 secs

     total energy              =    -140.94664285 Ry
     Harris-Foulkes estimate   =    -140.94664306 Ry
     estimated scf accuracy    <       0.00000131 Ry

     iteration # 10     ecut=    80.00 Ry     beta= 0.40
     Davidson diagonalization with overlap
     ethr =  1.41E-09,  avg # of iterations =  5.0

     negative rho (up, down):  1.361E-04 0.000E+00

     total cpu time spent up to now is     1954.7 secs

     total energy              =    -140.94664273 Ry
     Harris-Foulkes estimate   =    -140.94664303 Ry
     estimated scf accuracy    <       0.00000210 Ry

     iteration # 11     ecut=    80.00 Ry     beta= 0.40
     Davidson diagonalization with overlap
     ethr =  1.41E-09,  avg # of iterations =  2.0

     negative rho (up, down):  1.361E-04 0.000E+00

     total cpu time spent up to now is     1973.9 secs

     End of self-consistent calculation

          k = 0.0000 0.0000 0.0000 (448403 PWs)   bands (ev):

    -9.9596  -9.4534  -9.4512  -9.4497  -9.4115  -9.4109  -9.1300  -8.4067
    -8.4025  -8.4015  -8.3601  -8.3579  -8.3183  -8.2196  -8.2190  -7.5777
    -6.9342  -6.9337  -6.8256  -6.4770  -6.4763  -6.4444  -6.3861  -6.3851
    -5.5294  -4.8179  -4.8056  -4.8055  -4.7358  -4.7356  -4.4635  -4.4571
    -4.4466  -4.4461  -4.1562  -4.1556  -3.9803  -3.4731  -3.4715  -3.4710
    -3.4505  -3.4500  -3.3781  -3.3415  -3.2594  -3.2589  -3.2133  -2.9659
    -2.9429  -2.9422  -2.9163  -2.4912  -2.4906  -2.4501  -2.4408  -2.4179

     the Fermi energy is    -3.0884 ev

!    total energy              =    -140.94664244 Ry
     Harris-Foulkes estimate   =    -140.94664283 Ry
     estimated scf accuracy    <       0.00000049 Ry

     The total energy is the sum of the following terms:

     one-electron contribution =    -503.27443938 Ry
     hartree contribution      =     260.37255760 Ry
     xc contribution           =     -61.31683945 Ry
     ewald contribution        =     163.34797182 Ry
     smearing contrib. (-TS)   =      -0.07589304 Ry

     convergence has been achieved in  11 iterations

     negative rho (up, down):  1.361E-04 0.000E+00

     Forces acting on atoms (cartesian axes, Ry/au):

     atom    1 type  1   force =    -0.00228819    0.00138822    0.00000000
     atom    2 type  1   force =    -0.00000928   -0.00000536    0.00000000
     atom    3 type  1   force =    -0.00888668   -0.00376103    0.00000000
     atom    4 type  1   force =     0.00069980   -0.00241024    0.00000000
     atom    5 type  1   force =    -0.00770049   -0.00581557    0.00000000
     atom    6 type  1   force =     0.00152433    0.00088007    0.00000000
     atom    7 type  1   force =     0.00005813   -0.00267574    0.00000000
     atom    8 type  1   force =    -0.00173743    0.00181117    0.00000000
     atom    9 type  1   force =     0.00229379    0.00132432    0.00000000
     atom   10 type  1   force =    -0.00240583    0.00044925    0.00000000
     atom   11 type  1   force =     0.00008487   -0.00232638    0.00000000
     atom   12 type  1   force =    -0.00081386   -0.00230813    0.00000000
     atom   13 type  1   force =    -0.00057008   -0.00032914    0.00000000
     atom   14 type  1   force =     0.00006995   -0.00228867    0.00000000
     atom   15 type  1   force =    -0.00197227    0.00123669    0.00000000
     atom   16 type  1   force =    -0.00194708    0.00120491    0.00000000
     atom   17 type  1   force =     0.00124155    0.00938724    0.00000000
     atom   18 type  1   force =    -0.00007972   -0.00202763    0.00000000
     atom   19 type  1   force =     0.00875036   -0.00361841    0.00000000
     atom   20 type  1   force =     0.01314967    0.00759196    0.00000000
     atom   21 type  1   force =     0.00075190   -0.00050083    0.00000000
     atom   22 type  1   force =    -0.00179583    0.00094478    0.00000000
     atom   23 type  1   force =    -0.00005778    0.00090158    0.00000000
     atom   24 type  1   force =     0.00201047    0.00116075    0.00000000
     atom   25 type  1   force =    -0.00107768    0.00950621    0.00000000
     atom   26 type  1   force =     0.00230487    0.00070909    0.00000000
     atom   27 type  1   force =    -0.01297531    0.00753397    0.00000000
     atom   28 type  1   force =     0.00769378   -0.00568640    0.00000000
     atom   29 type  1   force =     0.00003696   -0.01500393    0.00000000
     atom   30 type  1   force =     0.00188054    0.00108573    0.00000000
     atom   31 type  1   force =     0.00176652    0.00164153    0.00000000

     Total force =     0.036494     Total SCF correction =     0.000574


     Computing stress (Cartesian axis) and pressure


     negative rho (up, down):  1.361E-04 0.000E+00
          total   stress  (Ry/bohr**3)                   (kbar)     P=   -0.70
  -0.00000718   0.00000000   0.00000000         -1.06      0.00      0.00
   0.00000000  -0.00000719   0.00000000          0.00     -1.06      0.00
   0.00000000   0.00000000  -0.00000001          0.00      0.00     -0.00


     number of scf cycles    =   6
     number of bfgs steps    =   5

     enthalpy old            =    -140.9429717799 Ry
     enthalpy new            =    -140.9466424380 Ry

     CASE: enthalpy_new < enthalpy_old

     new trust radius        =       0.1148574083 bohr
     new conv_thr            =       0.0000010000 Ry

     new unit-cell volume =  36895.19526 a.u.^3 (  5467.30379 Ang^3 )
     density =      0.28229 g/cm^3

CELL_PARAMETERS (alat= 33.68096681)
   0.996821099  -0.000013465   0.000000000
  -0.498422211   0.863292593   0.000000000
   0.000000000   0.000000000   1.122132950

ATOMIC_POSITIONS (angstrom)
Al       0.011007818   2.558252986   0.000000000
Al       2.220801332   1.282179573   0.000000000
Al      -2.217275485   6.422819910   0.000000000
Al      -0.031523174   5.158151790   0.000000000
Al      -4.429833336  10.255118795   0.000000000
Al      -2.226999230   8.972046296   0.000000000
Al      -6.662473401  14.117170341   0.000000000
Al      -4.432159318  12.780349724   0.000000000
Al       4.430548313   2.558015212   0.000000000
Al       6.703904519   1.294934893   0.000000000
Al       2.220580585   6.386166254   0.000000000
Al       4.473399354   5.158319438   0.000000000
Al       0.007961947  10.262439358   0.000000000
Al       2.221013405   8.965378848   0.000000000
Al      -2.242648300  14.116777995   0.000000000
Al      -0.008767094  12.827508235   0.000000000
Al       8.891475302   2.555654382   0.000000000
Al      11.104054966   1.289474309   0.000000000
Al       6.658967267   6.422508001   0.000000000
Al       9.026995653   5.211773975   0.000000000
Al       4.432928520  10.262188747   0.000000000
Al       6.668745572   8.971728075   0.000000000
Al       2.220228196  14.094734403   0.000000000
Al       4.450418357  12.827291416   0.000000000
Al      13.316718290   2.555819558   0.000000000
Al      15.504530456   1.294705417   0.000000000
Al      13.180887431   5.211488584   0.000000000
Al       8.871731805  10.254834535   0.000000000
Al      11.103694384   8.809328752   0.000000000
Al       6.684180961  14.116992481   0.000000000
Al       8.873513586  12.780072361   0.000000000



     Writing output data file 27al_planar_2x2_vcr.save/
     NEW-OLD atomic charge density approx. for the potential

     negative rho (up, down):  1.362E-04 0.000E+00
     extrapolated charge   92.78126, renormalised to   93.00000

     total cpu time spent up to now is     2048.6 secs

     Self-consistent Calculation

     iteration #  1     ecut=    80.00 Ry     beta= 0.40
     Davidson diagonalization with overlap
     ethr =  1.00E-06,  avg # of iterations = 13.0

     negative rho (up, down):  1.376E-04 0.000E+00

     total cpu time spent up to now is     2091.7 secs

     total energy              =    -140.95072478 Ry
     Harris-Foulkes estimate   =    -142.03839797 Ry
     estimated scf accuracy    <       0.00195170 Ry

     iteration #  2     ecut=    80.00 Ry     beta= 0.40
     Davidson diagonalization with overlap
     ethr =  2.10E-06,  avg # of iterations =  8.0

     negative rho (up, down):  1.373E-04 0.000E+00

     total cpu time spent up to now is     2122.9 secs

     total energy              =    -140.95058322 Ry
     Harris-Foulkes estimate   =    -140.95379549 Ry
     estimated scf accuracy    <       0.02441887 Ry

     iteration #  3     ecut=    80.00 Ry     beta= 0.40
     Davidson diagonalization with overlap
     ethr =  2.10E-06,  avg # of iterations = 17.0

     negative rho (up, down):  1.369E-04 0.000E+00

     total cpu time spent up to now is     2150.5 secs

     total energy              =    -140.95190185 Ry
     Harris-Foulkes estimate   =    -140.95204250 Ry
     estimated scf accuracy    <       0.00063366 Ry

     iteration #  4     ecut=    80.00 Ry     beta= 0.40
     Davidson diagonalization with overlap
     ethr =  6.81E-07,  avg # of iterations =  2.0

     negative rho (up, down):  1.365E-04 0.000E+00

     total cpu time spent up to now is     2169.4 secs

     total energy              =    -140.95190084 Ry
     Harris-Foulkes estimate   =    -140.95196507 Ry
     estimated scf accuracy    <       0.00037393 Ry

     iteration #  5     ecut=    80.00 Ry     beta= 0.40
     Davidson diagonalization with overlap
     ethr =  4.02E-07,  avg # of iterations =  1.0

     negative rho (up, down):  1.361E-04 0.000E+00

     total cpu time spent up to now is     2188.1 secs

     total energy              =    -140.95187490 Ry
     Harris-Foulkes estimate   =    -140.95197423 Ry
     estimated scf accuracy    <       0.00058955 Ry

     iteration #  6     ecut=    80.00 Ry     beta= 0.40
     Davidson diagonalization with overlap
     ethr =  4.02E-07,  avg # of iterations =  1.0

     negative rho (up, down):  1.354E-04 0.000E+00

     total cpu time spent up to now is     2207.8 secs

     total energy              =    -140.95191848 Ry
     Harris-Foulkes estimate   =    -140.95193246 Ry
     estimated scf accuracy    <       0.00007671 Ry

     iteration #  7     ecut=    80.00 Ry     beta= 0.40
     Davidson diagonalization with overlap
     ethr =  8.25E-08,  avg # of iterations =  7.0

     negative rho (up, down):  1.354E-04 0.000E+00

     total cpu time spent up to now is     2232.2 secs

     total energy              =    -140.95192624 Ry
     Harris-Foulkes estimate   =    -140.95193218 Ry
     estimated scf accuracy    <       0.00003509 Ry

     iteration #  8     ecut=    80.00 Ry     beta= 0.40
     Davidson diagonalization with overlap
     ethr =  3.77E-08,  avg # of iterations =  3.0

     negative rho (up, down):  1.355E-04 0.000E+00

     total cpu time spent up to now is     2252.9 secs

     total energy              =    -140.95192883 Ry
     Harris-Foulkes estimate   =    -140.95193115 Ry
     estimated scf accuracy    <       0.00001182 Ry

     iteration #  9     ecut=    80.00 Ry     beta= 0.40
     Davidson diagonalization with overlap
     ethr =  1.27E-08,  avg # of iterations =  2.0

     negative rho (up, down):  1.354E-04 0.000E+00

     total cpu time spent up to now is     2273.1 secs

     total energy              =    -140.95192941 Ry
     Harris-Foulkes estimate   =    -140.95193002 Ry
     estimated scf accuracy    <       0.00000297 Ry

     iteration # 10     ecut=    80.00 Ry     beta= 0.40
     Davidson diagonalization with overlap
     ethr =  3.19E-09,  avg # of iterations =  4.0

     negative rho (up, down):  1.355E-04 0.000E+00

     total cpu time spent up to now is     2296.5 secs

     total energy              =    -140.95192928 Ry
     Harris-Foulkes estimate   =    -140.95193006 Ry
     estimated scf accuracy    <       0.00000427 Ry

     iteration # 11     ecut=    80.00 Ry     beta= 0.40
     Davidson diagonalization with overlap
     ethr =  3.19E-09,  avg # of iterations =  3.0

     negative rho (up, down):  1.354E-04 0.000E+00

     total cpu time spent up to now is     2316.2 secs

     End of self-consistent calculation

          k = 0.0000 0.0000 0.0000 (448403 PWs)   bands (ev):

    -9.9645  -9.4612  -9.4608  -9.4567  -9.4052  -9.4050  -9.1258  -8.4189
    -8.4033  -8.4031  -8.3509  -8.3505  -8.3260  -8.1933  -8.1933  -7.5791
    -6.9366  -6.9362  -6.8300  -6.4756  -6.4756  -6.4250  -6.3901  -6.3899
    -5.5676  -4.8090  -4.7921  -4.7915  -4.7295  -4.7293  -4.4566  -4.4510
    -4.4490  -4.4489  -4.1759  -4.1752  -3.9823  -3.4774  -3.4771  -3.4722
    -3.4439  -3.4437  -3.4228  -3.3636  -3.2519  -3.2518  -3.2120  -2.9752
    -2.9300  -2.9297  -2.8855  -2.4779  -2.4772  -2.4579  -2.4391  -2.4389

     the Fermi energy is    -3.0873 ev

!    total energy              =    -140.95192909 Ry
     Harris-Foulkes estimate   =    -140.95192966 Ry
     estimated scf accuracy    <       0.00000076 Ry

     The total energy is the sum of the following terms:

     one-electron contribution =    -504.03122384 Ry
     hartree contribution      =     260.74389418 Ry
     xc contribution           =     -61.30901889 Ry
     ewald contribution        =     163.71687422 Ry
     smearing contrib. (-TS)   =      -0.07245475 Ry

     convergence has been achieved in  11 iterations

     negative rho (up, down):  1.354E-04 0.000E+00

     Forces acting on atoms (cartesian axes, Ry/au):

     atom    1 type  1   force =    -0.00409399    0.00233101    0.00000000
     atom    2 type  1   force =    -0.00002866   -0.00001655    0.00000000
     atom    3 type  1   force =    -0.01409582   -0.00632203    0.00000000
     atom    4 type  1   force =     0.00275083   -0.00507842    0.00000000
     atom    5 type  1   force =    -0.01252294   -0.00904632    0.00000000
     atom    6 type  1   force =     0.00288071    0.00166318    0.00000000
     atom    7 type  1   force =    -0.00002828   -0.00471100    0.00000000
     atom    8 type  1   force =    -0.00302262    0.00492150    0.00000000
     atom    9 type  1   force =     0.00413464    0.00238714    0.00000000
     atom   10 type  1   force =    -0.00588359    0.00004767    0.00000000
     atom   11 type  1   force =     0.00007251   -0.00242728    0.00000000
     atom   12 type  1   force =    -0.00290051   -0.00511917    0.00000000
     atom   13 type  1   force =    -0.00141241   -0.00081546    0.00000000
     atom   14 type  1   force =    -0.00015664   -0.00296713    0.00000000
     atom   15 type  1   force =    -0.00206584    0.00127643    0.00000000
     atom   16 type  1   force =    -0.00264793    0.00134791    0.00000000
     atom   17 type  1   force =     0.00163900    0.01536354    0.00000000
     atom   18 type  1   force =     0.00002749   -0.00343530    0.00000000
     atom   19 type  1   force =     0.01412471   -0.00626235    0.00000000
     atom   20 type  1   force =     0.01336834    0.00771821    0.00000000
     atom   21 type  1   force =     0.00167668   -0.00076008    0.00000000
     atom   22 type  1   force =    -0.00296131    0.00174146    0.00000000
     atom   23 type  1   force =     0.00018009    0.00183208    0.00000000
     atom   24 type  1   force =     0.00250437    0.00144590    0.00000000
     atom   25 type  1   force =    -0.00157514    0.01522651    0.00000000
     atom   26 type  1   force =     0.00578371    0.00014755    0.00000000
     atom   27 type  1   force =    -0.01332109    0.00780599    0.00000000
     atom   28 type  1   force =     0.01239898   -0.00897736    0.00000000
     atom   29 type  1   force =     0.00009964   -0.01543940    0.00000000
     atom   30 type  1   force =     0.00205544    0.00118671    0.00000000
     atom   31 type  1   force =     0.00301964    0.00493507    0.00000000

     Total force =     0.049961     Total SCF correction =     0.000699


     Computing stress (Cartesian axis) and pressure


     negative rho (up, down):  1.354E-04 0.000E+00
          total   stress  (Ry/bohr**3)                   (kbar)     P=   -0.77
  -0.00000785   0.00000004   0.00000000         -1.15      0.01      0.00
   0.00000004  -0.00000789   0.00000000          0.01     -1.16      0.00
   0.00000000   0.00000000   0.00000000          0.00      0.00      0.00


     number of scf cycles    =   7
     number of bfgs steps    =   6

     enthalpy old            =    -140.9466424380 Ry
     enthalpy new            =    -140.9519290896 Ry

     CASE: enthalpy_new < enthalpy_old

     new trust radius        =       0.1720828013 bohr
     new conv_thr            =       0.0000010000 Ry

     new unit-cell volume =  36764.77625 a.u.^3 (  5447.97769 Ang^3 )
     density =      0.28329 g/cm^3

CELL_PARAMETERS (alat= 33.68096681)
   0.995054343  -0.000019313   0.000000000
  -0.497543897   0.861771308   0.000000000
   0.000000000   0.000000000   1.122132950

ATOMIC_POSITIONS (angstrom)
[...]
Al       7.008544780   4.046415668   0.000000000
Al       3.019009700   8.952061522   0.000000000
Al       5.650611442   9.055414498   0.000000000
Al       1.664242691  11.298618263   0.000000000
Al       4.336241811  11.276915089   0.000000000
Al      12.109758340   2.868246786   0.000000000
Al      13.197157462   0.488855896   0.000000000
Al       9.983898267   4.349704961   0.000000000
Al       8.538826746   9.053344635   0.000000000
Al       8.758877939   6.471533859   0.000000000
Al       8.065771948  13.430192497   0.000000000
Al       7.021941403  11.184738209   0.000000000
End final coordinates



     Writing output data file 27al_planar_2x2_vcr.save/

     A final scf calculation at the relaxed structure.
     The G-vectors are recalculated for the final unit cell
     Results may differ from those at the preceding step.
 
     Parallelization info
     --------------------
     sticks:   dense  smooth     PW     G-vecs:    dense   smooth      PW
     Min        2304    2304    576               330600   330600   41308
     Max        2306    2306    577               330601   330601   41311
     Sum       18439   18439   4615              2644805  2644805  330477
 


     bravais-lattice index     =            4
     lattice parameter (alat)  =      33.6810  a.u.
     unit-cell volume          =   27359.9894 (a.u.)^3
     number of atoms/cell      =           31
     number of atomic types    =            1
     number of electrons       =        93.00
     number of Kohn-Sham states=           56
     kinetic-energy cutoff     =      80.0000  Ry
     charge density cutoff     =     320.0000  Ry
     convergence threshold     =      1.0E-08
     mixing beta               =       0.4000
     number of iterations used =            8  plain     mixing
     Exchange-correlation      = PBE ( 1  4  3  4 0 0)

     celldm(1)=  33.680967  celldm(2)=   0.000000  celldm(3)=   1.122133
     celldm(4)=   0.000000  celldm(5)=   0.000000  celldm(6)=   0.000000

     crystal axes: (cart. coord. in units of alat)
               a(1) = (   0.861348   0.005058   0.000000 )  
               a(2) = (  -0.426293   0.738362   0.000000 )  
               a(3) = (   0.000000   0.000000   1.122133 )  

     reciprocal axes: (cart. coord. in units 2 pi/alat)
               b(1) = (  1.157048  0.668022  0.000000 )  
               b(2) = ( -0.007927  1.349773  0.000000 )  
               b(3) = (  0.000000  0.000000  0.891160 )  


     PseudoPot. # 1 for Al read from file:
     ./Al.upf
     MD5 check sum: 4974d48a734c9d7d1eb6780a1419d19d
     Pseudo is Norm-conserving + core correction, Zval =  3.0
     Generated using ONCVPSP code by D. R. Hamann
     Using radial grid of 1876 points,  6 beta functions with: 
                l(1) =   0
                l(2) =   0
                l(3) =   1
                l(4) =   1
                l(5) =   2
                l(6) =   2

     atomic species   valence    mass     pseudopotential
        Al             3.00    29.98200     Al( 1.00)

      4 Sym. Ops. (no inversion) found ( 2 have fractional translation)



   Cartesian axes

     site n.     atom                  positions (alat units)
         1           Al  tau(   1) = (  -0.0277133   0.1501808   0.0000000  )
         2           Al  tau(   2) = (   0.1354470   0.0782003   0.0000000  )
         3           Al  tau(   3) = (  -0.1697246   0.3070801   0.0000000  )
         4           Al  tau(   4) = (  -0.0226847   0.3016807   0.0000000  )
         5           Al  tau(   5) = (  -0.2452185   0.4378412   0.0000000  )
         6           Al  tau(   6) = (  -0.1004818   0.4342303   0.0000000  )
         7           Al  tau(   7) = (  -0.3100902   0.6392771   0.0000000  )
         8           Al  tau(   8) = (  -0.1763730   0.5678801   0.0000000  )
         9           Al  tau(   9) = (   0.2600310   0.1501307   0.0000000  )
        10           Al  tau(  10) = (   0.3729096   0.0566627   0.0000000  )
        11           Al  tau(  11) = (   0.1085314   0.2215777   0.0000000  )
        12           Al  tau(  12) = (   0.2355261   0.2946196   0.0000000  )
        13           Al  tau(  13) = (   0.0228207   0.5054208   0.0000000  )
        14           Al  tau(  14) = (   0.1065413   0.3710995   0.0000000  )
        15           Al  tau(  15) = (  -0.1801378   0.7215709   0.0000000  )
        16           Al  tau(  16) = (  -0.0516431   0.6450847   0.0000000  )
        17           Al  tau(  17) = (   0.4990989   0.1183348   0.0000000  )
        18           Al  tau(  18) = (   0.5985160   0.0205292   0.0000000  )
        19           Al  tau(  19) = (   0.3520288   0.3730694   0.0000000  )
        20           Al  tau(  20) = (   0.3932260   0.2270308   0.0000000  )
        21           Al  tau(  21) = (   0.1693865   0.5022702   0.0000000  )
        22           Al  tau(  22) = (   0.3170369   0.5080689   0.0000000  )
        23           Al  tau(  23) = (   0.0933751   0.6339276   0.0000000  )
        24           Al  tau(  24) = (   0.2432920   0.6327099   0.0000000  )
        25           Al  tau(  25) = (   0.6794379   0.1609277   0.0000000  )
        26           Al  tau(  26) = (   0.7404483   0.0274281   0.0000000  )
        27           Al  tau(  27) = (   0.5601631   0.2440474   0.0000000  )
        28           Al  tau(  28) = (   0.4790849   0.5079528   0.0000000  )
        29           Al  tau(  29) = (   0.4914313   0.3630961   0.0000000  )
        30           Al  tau(  30) = (   0.4525434   0.7535231   0.0000000  )
        31           Al  tau(  31) = (   0.3939776   0.6275382   0.0000000  )

     number of k points=     1  Methfessel-Paxton smearing, width (Ry)=  0.0500
                       cart. coord. in units 2pi/alat
        k(    1) = (   0.0000000   0.0000000   0.0000000), wk =   2.0000000

     Dense  grid:  2644805 G-vectors     FFT dimensions: ( 180, 180, 216)

     Estimated max dynamical RAM per process >     888.75 MB

     Estimated total dynamical RAM >       6.94 GB

     Initial potential from superposition of free atoms

     starting charge   92.92414, renormalised to   93.00000

     negative rho (up, down):  7.322E-05 0.000E+00
     Starting wfcs are  124 randomized atomic wfcs

     total cpu time spent up to now is    49859.0 secs

     Self-consistent Calculation

     iteration #  1     ecut=    80.00 Ry     beta= 0.40
     Davidson diagonalization with overlap
     c_bands:  1 eigenvalues not converged
     ethr =  1.00E-06,  avg # of iterations = 20.0

     negative rho (up, down):  2.127E-05 0.000E+00

     total cpu time spent up to now is    49925.0 secs

     total energy              =    -141.89442045 Ry
     Harris-Foulkes estimate   =    -142.27103493 Ry
     estimated scf accuracy    <       1.00696034 Ry

     iteration #  2     ecut=    80.00 Ry     beta= 0.40
     Davidson diagonalization with overlap
     ethr =  1.08E-03,  avg # of iterations =  3.0

     negative rho (up, down):  2.286E-05 0.000E+00

     total cpu time spent up to now is    49943.7 secs

     total energy              =    -141.83238763 Ry
     Harris-Foulkes estimate   =    -142.06340393 Ry
     estimated scf accuracy    <       0.61532140 Ry

     iteration #  3     ecut=    80.00 Ry     beta= 0.40
     Davidson diagonalization with overlap
     ethr =  6.62E-04,  avg # of iterations =  5.0

     negative rho (up, down):  2.740E-05 0.000E+00

     total cpu time spent up to now is    49966.9 secs

     total energy              =    -141.88105793 Ry
     Harris-Foulkes estimate   =    -142.06947187 Ry
     estimated scf accuracy    <       0.88577817 Ry

     iteration #  4     ecut=    80.00 Ry     beta= 0.40
     Davidson diagonalization with overlap
     ethr =  6.62E-04,  avg # of iterations =  4.0

     negative rho (up, down):  2.896E-05 0.000E+00

     total cpu time spent up to now is    49988.0 secs

     total energy              =    -141.96598963 Ry
     Harris-Foulkes estimate   =    -141.97308117 Ry
     estimated scf accuracy    <       0.02361431 Ry

     iteration #  5     ecut=    80.00 Ry     beta= 0.40
     Davidson diagonalization with overlap
     ethr =  2.54E-05,  avg # of iterations = 12.0

     negative rho (up, down):  2.998E-05 0.000E+00

     total cpu time spent up to now is    50017.3 secs

     total energy              =    -141.97151795 Ry
     Harris-Foulkes estimate   =    -141.97525458 Ry
     estimated scf accuracy    <       0.01521878 Ry

     iteration #  6     ecut=    80.00 Ry     beta= 0.40
     Davidson diagonalization with overlap
     ethr =  1.64E-05,  avg # of iterations =  5.0

     negative rho (up, down):  3.090E-05 0.000E+00

     total cpu time spent up to now is    50038.7 secs

     total energy              =    -141.97229170 Ry
     Harris-Foulkes estimate   =    -141.97456388 Ry
     estimated scf accuracy    <       0.01006057 Ry

     iteration #  7     ecut=    80.00 Ry     beta= 0.40
     Davidson diagonalization with overlap
     ethr =  1.08E-05,  avg # of iterations =  4.0

     negative rho (up, down):  3.126E-05 0.000E+00

     total cpu time spent up to now is    50058.5 secs

     total energy              =    -141.97333897 Ry
     Harris-Foulkes estimate   =    -141.97356812 Ry
     estimated scf accuracy    <       0.00083482 Ry

     iteration #  8     ecut=    80.00 Ry     beta= 0.40
     Davidson diagonalization with overlap
     ethr =  8.98E-07,  avg # of iterations = 10.0

     negative rho (up, down):  3.138E-05 0.000E+00

     total cpu time spent up to now is    50085.7 secs

     total energy              =    -141.97336452 Ry
     Harris-Foulkes estimate   =    -141.97346754 Ry
     estimated scf accuracy    <       0.00056645 Ry

     iteration #  9     ecut=    80.00 Ry     beta= 0.40
     Davidson diagonalization with overlap
     ethr =  6.09E-07,  avg # of iterations =  3.0

     negative rho (up, down):  3.142E-05 0.000E+00

     total cpu time spent up to now is    50104.7 secs

     total energy              =    -141.97337791 Ry
     Harris-Foulkes estimate   =    -141.97341628 Ry
     estimated scf accuracy    <       0.00017565 Ry

     iteration # 10     ecut=    80.00 Ry     beta= 0.40
     Davidson diagonalization with overlap
     ethr =  1.89E-07,  avg # of iterations =  4.0

     negative rho (up, down):  3.147E-05 0.000E+00

     total cpu time spent up to now is    50124.8 secs

     total energy              =    -141.97339889 Ry
     Harris-Foulkes estimate   =    -141.97340092 Ry
     estimated scf accuracy    <       0.00000878 Ry

     iteration # 11     ecut=    80.00 Ry     beta= 0.40
     Davidson diagonalization with overlap
     ethr =  9.44E-09,  avg # of iterations =  7.0

     negative rho (up, down):  3.149E-05 0.000E+00

     total cpu time spent up to now is    50153.8 secs

     total energy              =    -141.97340193 Ry
     Harris-Foulkes estimate   =    -141.97340379 Ry
     estimated scf accuracy    <       0.00000982 Ry

     iteration # 12     ecut=    80.00 Ry     beta= 0.40
     Davidson diagonalization with overlap
     ethr =  9.44E-09,  avg # of iterations =  5.0

     negative rho (up, down):  3.151E-05 0.000E+00

     total cpu time spent up to now is    50174.9 secs

     total energy              =    -141.97340192 Ry
     Harris-Foulkes estimate   =    -141.97340308 Ry
     estimated scf accuracy    <       0.00000486 Ry

     iteration # 13     ecut=    80.00 Ry     beta= 0.40
     Davidson diagonalization with overlap
     ethr =  5.22E-09,  avg # of iterations =  4.0

     negative rho (up, down):  3.152E-05 0.000E+00

     total cpu time spent up to now is    50196.4 secs

     total energy              =    -141.97340243 Ry
     Harris-Foulkes estimate   =    -141.97340267 Ry
     estimated scf accuracy    <       0.00000153 Ry

     iteration # 14     ecut=    80.00 Ry     beta= 0.40
     Davidson diagonalization with overlap
     ethr =  1.64E-09,  avg # of iterations =  3.0

     negative rho (up, down):  3.153E-05 0.000E+00

     total cpu time spent up to now is    50214.4 secs

     total energy              =    -141.97340235 Ry
     Harris-Foulkes estimate   =    -141.97340249 Ry
     estimated scf accuracy    <       0.00000051 Ry

     iteration # 15     ecut=    80.00 Ry     beta= 0.40
     Davidson diagonalization with overlap
     ethr =  5.49E-10,  avg # of iterations =  6.0

     negative rho (up, down):  3.153E-05 0.000E+00

     total cpu time spent up to now is    50237.2 secs

     total energy              =    -141.97340241 Ry
     Harris-Foulkes estimate   =    -141.97340244 Ry
     estimated scf accuracy    <       0.00000014 Ry

     iteration # 16     ecut=    80.00 Ry     beta= 0.40
     Davidson diagonalization with overlap
     ethr =  1.47E-10,  avg # of iterations =  4.0

     negative rho (up, down):  3.153E-05 0.000E+00

     total cpu time spent up to now is    50256.4 secs

     total energy              =    -141.97340241 Ry
     Harris-Foulkes estimate   =    -141.97340241 Ry
     estimated scf accuracy    <       0.00000002 Ry

     iteration # 17     ecut=    80.00 Ry     beta= 0.40
     Davidson diagonalization with overlap
     ethr =  1.62E-11,  avg # of iterations =  6.0

     negative rho (up, down):  3.153E-05 0.000E+00

     total cpu time spent up to now is    50279.3 secs

     End of self-consistent calculation

          k = 0.0000 0.0000 0.0000 (330477 PWs)   bands (ev):

   -11.4587 -10.8344 -10.6798 -10.5837 -10.5365 -10.4469 -10.3902  -9.1876
    -9.0475  -8.9941  -8.8826  -8.8725  -8.6676  -8.2541  -8.1418  -8.1407
    -8.1144  -7.9021  -7.6537  -6.0615  -6.0008  -5.9550  -5.9510  -5.9029
    -5.8267  -5.6763  -5.5429  -5.4643  -5.4249  -5.2845  -5.2166  -4.7784
    -4.4730  -4.3408  -4.1367  -4.1325  -4.0305  -3.9588  -3.9368  -3.8757
    -3.8235  -3.7908  -3.7410  -3.7335  -2.5375  -2.4429  -2.3973  -2.3462
    -2.2950  -2.1898  -2.1816  -2.0756  -1.9454  -1.7870  -1.7060  -1.6152

     the Fermi energy is    -2.4736 ev

!    total energy              =    -141.97340237 Ry
     Harris-Foulkes estimate   =    -141.97340238 Ry
     estimated scf accuracy    <          6.7E-09 Ry

     The total energy is the sum of the following terms:

     one-electron contribution =    -670.66716795 Ry
     hartree contribution      =     344.06111791 Ry
     xc contribution           =     -63.39923111 Ry
     ewald contribution        =     248.08161663 Ry
     smearing contrib. (-TS)   =      -0.04973785 Ry

     convergence has been achieved in  17 iterations

     negative rho (up, down):  3.153E-05 0.000E+00

     Forces acting on atoms (cartesian axes, Ry/au):

     atom    1 type  1   force =    -0.00000028    0.00000231    0.00000000
     atom    2 type  1   force =    -0.00000662   -0.00000382    0.00000000
     atom    3 type  1   force =     0.00000212   -0.00000035    0.00000000
     atom    4 type  1   force =    -0.00000692   -0.00000072    0.00000000
     atom    5 type  1   force =     0.00000076    0.00000201    0.00000000
     atom    6 type  1   force =     0.00000622    0.00000359    0.00000000
     atom    7 type  1   force =     0.00000186   -0.00000140    0.00000000
     atom    8 type  1   force =    -0.00000408   -0.00000564    0.00000000
     atom    9 type  1   force =     0.00000475    0.00000274    0.00000000
     atom   10 type  1   force =     0.00000444    0.00000068    0.00000000
     atom   11 type  1   force =    -0.00001870   -0.00000595    0.00000000
     atom   12 type  1   force =     0.00000280    0.00000350    0.00000000
     atom   13 type  1   force =    -0.00000376   -0.00000217    0.00000000
     atom   14 type  1   force =     0.00000345   -0.00000623    0.00000000
     atom   15 type  1   force =    -0.00001450   -0.00001322    0.00000000
     atom   16 type  1   force =    -0.00000367    0.00000610    0.00000000
     atom   17 type  1   force =     0.00000120    0.00000215    0.00000000
     atom   18 type  1   force =     0.00000056    0.00000952    0.00000000
     atom   19 type  1   force =     0.00000247   -0.00000004    0.00000000
     atom   20 type  1   force =     0.00000507    0.00000293    0.00000000
     atom   21 type  1   force =     0.00000093   -0.00000454    0.00000000
     atom   22 type  1   force =     0.00000853   -0.00000427    0.00000000
     atom   23 type  1   force =    -0.00000347    0.00000307    0.00000000
     atom   24 type  1   force =    -0.00000765   -0.00000442    0.00000000
     atom   25 type  1   force =     0.00000991   -0.00000092    0.00000000
     atom   26 type  1   force =     0.00000486    0.00000177    0.00000000
     atom   27 type  1   force =    -0.00000251    0.00000955    0.00000000
     atom   28 type  1   force =     0.00000416    0.00000904    0.00000000
     atom   29 type  1   force =     0.00000701   -0.00000695    0.00000000
     atom   30 type  1   force =    -0.00000287   -0.00000166    0.00000000
     atom   31 type  1   force =     0.00000396    0.00000332    0.00000000

     Total force =     0.000045     Total SCF correction =     0.000082
     SCF correction compared to forces is large: reduce conv_thr to get better values


     Computing stress (Cartesian axis) and pressure


     negative rho (up, down):  3.153E-05 0.000E+00
          total   stress  (Ry/bohr**3)                   (kbar)     P=    0.00
   0.00000003  -0.00000001   0.00000000          0.00     -0.00      0.00
  -0.00000001   0.00000004   0.00000000         -0.00      0.01      0.00
   0.00000000   0.00000000  -0.00000001          0.00      0.00     -0.00


     Writing output data file 27al_planar_2x2_vcr.save/
 
     init_run     :     41.50s CPU     48.44s WALL (       2 calls)
     electrons    :  32556.07s CPU  39336.84s WALL (     150 calls)
     update_pot   :   2292.76s CPU   2338.78s WALL (     148 calls)
     forces       :   1994.57s CPU   2089.50s WALL (     150 calls)
     stress       :   6205.12s CPU   6419.04s WALL (     150 calls)

     Called by init_run:
     wfcinit      :     21.89s CPU     27.94s WALL (       2 calls)
     potinit      :      7.46s CPU      7.98s WALL (       2 calls)
     hinit0       :      8.57s CPU      8.76s WALL (       2 calls)

     Called by electrons:
     c_bands      :  27349.94s CPU  32744.29s WALL (    1379 calls)
     sum_band     :   3549.24s CPU   4477.79s WALL (    1379 calls)
     v_of_rho     :   1445.78s CPU   1739.35s WALL (    1476 calls)
     mix_rho      :    283.87s CPU    427.43s WALL (    1379 calls)

     Called by c_bands:
     init_us_2    :    460.51s CPU    506.66s WALL (    2760 calls)
     cegterg      :  23549.33s CPU  28878.14s WALL (    1380 calls)

     Called by sum_band:

     Called by *egterg:
     h_psi        :  20660.71s CPU  25779.98s WALL (    9203 calls)
     g_psi        :     73.44s CPU     76.94s WALL (    7821 calls)
     cdiaghg      :     71.46s CPU     73.19s WALL (    8999 calls)

     Called by h_psi:
     h_psi:pot    :  20609.72s CPU  25644.56s WALL (    9203 calls)
     h_psi:calbec :   2843.65s CPU   2994.42s WALL (    9203 calls)
     vloc_psi     :  15071.18s CPU  19911.83s WALL (    9203 calls)
     add_vuspsi   :   2694.76s CPU   2738.21s WALL (    9203 calls)

     General routines
     calbec       :   3258.66s CPU   3425.71s WALL (    9953 calls)
     fft          :   1219.03s CPU   1448.57s WALL (   18711 calls)
     ffts         :     85.36s CPU    102.55s WALL (    1379 calls)
     fftw         :  15715.13s CPU  21243.46s WALL (  540362 calls)
 
     Parallel routines
     fft_scatt_xy :   3023.01s CPU   4220.91s WALL (  560452 calls)
     fft_scatt_yz :   5662.03s CPU   6834.88s WALL (  560452 calls)
 
     PWSCF        :    11h58m CPU       58h13m WALL

      58h
 
   This run was terminated on:  23:13: 2  26Nov2020            

=------------------------------------------------------------------------------=
   JOB DONE.
=------------------------------------------------------------------------------=
