
     Program PWSCF v.6.3MaX starts on 25Nov2020 at 15:57:22 

     This program is part of the open-source Quantum ESPRESSO suite
     for quantum simulation of materials; please cite
         "P. Giannozzi et al., J. Phys.:Condens. Matter 21 395502 (2009);
         "P. Giannozzi et al., J. Phys.:Condens. Matter 29 465901 (2017);
          URL http://www.quantum-espresso.org", 
     in publications or presentations arising from this work. More details at
     http://www.quantum-espresso.org/quote

     Parallel version (MPI), running on     8 processors

     MPI processes distributed on     4 nodes
     R & G space division:  proc/nbgrp/npool/nimage =       8
     Waiting for input...
     Reading input from standard input

     Current dimensions of program PWSCF are:
     Max number of different atomic species (ntypx) = 10
     Max number of k-points (npk) =  40000
     Max angular momentum in pseudopotentials (lmaxx) =  3

     Subspace diagonalization in iterative solution of the eigenvalue problem:
     a serial algorithm will be used

 
     Parallelization info
     --------------------
     sticks:   dense  smooth     PW     G-vecs:    dense   smooth      PW
     Min        1758    1758    438               252392   252392   31546
     Max        1759    1759    439               252397   252397   31551
     Sum       14071   14071   3505              2019149  2019149  252395
 


     bravais-lattice index     =            4
     lattice parameter (alat)  =      25.2607  a.u.
     unit-cell volume          =   20885.8003 (a.u.)^3
     number of atoms/cell      =           17
     number of atomic types    =            1
     number of electrons       =        51.00
     number of Kohn-Sham states=           31
     kinetic-energy cutoff     =      80.0000  Ry
     charge density cutoff     =     320.0000  Ry
     convergence threshold     =      1.0E-06
     mixing beta               =       0.4000
     number of iterations used =            8  plain     mixing
     Exchange-correlation      = PBE ( 1  4  3  4 0 0)
     nstep                     =          300


     celldm(1)=  25.260725  celldm(2)=   0.000000  celldm(3)=   1.496177
     celldm(4)=   0.000000  celldm(5)=   0.000000  celldm(6)=   0.000000

     crystal axes: (cart. coord. in units of alat)
               a(1) = (   1.000000   0.000000   0.000000 )  
               a(2) = (  -0.500000   0.866025   0.000000 )  
               a(3) = (   0.000000   0.000000   1.496177 )  

     reciprocal axes: (cart. coord. in units 2 pi/alat)
               b(1) = (  1.000000  0.577350  0.000000 )  
               b(2) = (  0.000000  1.154701  0.000000 )  
               b(3) = (  0.000000  0.000000  0.668370 )  


     PseudoPot. # 1 for Al read from file:
     ./Al.upf
     MD5 check sum: 4974d48a734c9d7d1eb6780a1419d19d
     Pseudo is Norm-conserving + core correction, Zval =  3.0
     Generated using ONCVPSP code by D. R. Hamann
     Using radial grid of 1876 points,  6 beta functions with: 
                l(1) =   0
                l(2) =   0
                l(3) =   1
                l(4) =   1
                l(5) =   2
                l(6) =   2

     atomic species   valence    mass     pseudopotential
        Al             3.00    29.98200     Al( 1.00)

      2 Sym. Ops. (no inversion) found



   Cartesian axes

     site n.     atom                  positions (alat units)
         1           Al  tau(   1) = (   0.0000000   0.1924524   0.0000000  )
         2           Al  tau(   2) = (   0.1666687   0.0962261   0.0000000  )
         3           Al  tau(   3) = (   0.3333348   0.1924537   0.0000000  )
         4           Al  tau(   4) = (   0.5000036   0.0962275   0.0000000  )
         5           Al  tau(   5) = (  -0.1666663   0.4811295   0.0000000  )
         6           Al  tau(   6) = (   0.0000024   0.3849033   0.0000000  )
         7           Al  tau(   7) = (   0.3333373   0.3849047   0.0000000  )
         8           Al  tau(   8) = (  -0.3333326   0.7698067   0.0000000  )
         9           Al  tau(   9) = (  -0.1666639   0.6735805   0.0000000  )
        10           Al  tau(  10) = (   0.0000023   0.7698081   0.0000000  )
        11           Al  tau(  11) = (   0.1666710   0.6735818   0.0000000  )
        12           Al  tau(  12) = (   0.6666697   0.1924551   0.0000000  )
        13           Al  tau(  13) = (   0.8333384   0.0962289   0.0000000  )
        14           Al  tau(  14) = (   0.5000035   0.4811323   0.0000000  )
        15           Al  tau(  15) = (   0.6666722   0.3849060   0.0000000  )
        16           Al  tau(  16) = (   0.3333372   0.7698094   0.0000000  )
        17           Al  tau(  17) = (   0.5000059   0.6735832   0.0000000  )

     number of k points=     1  Methfessel-Paxton smearing, width (Ry)=  0.0500
                       cart. coord. in units 2pi/alat
        k(    1) = (   0.0000000   0.0000000   0.0000000), wk =   2.0000000

     Dense  grid:  2019149 G-vectors     FFT dimensions: ( 144, 144, 216)

     Estimated max dynamical RAM per process >     437.36 MB

     Estimated total dynamical RAM >       3.42 GB

     Initial potential from superposition of free atoms

     starting charge   50.95840, renormalised to   51.00000

     negative rho (up, down):  5.196E-05 0.000E+00
     Starting wfcs are   68 randomized atomic wfcs

     total cpu time spent up to now is       13.7 secs

     Self-consistent Calculation

     iteration #  1     ecut=    80.00 Ry     beta= 0.40
     Davidson diagonalization with overlap
     ethr =  1.00E-02,  avg # of iterations =  2.0

     total cpu time spent up to now is       20.4 secs

     total energy              =     -77.03430408 Ry
     Harris-Foulkes estimate   =     -77.31746461 Ry
     estimated scf accuracy    <       0.79341066 Ry

     iteration #  2     ecut=    80.00 Ry     beta= 0.40
     Davidson diagonalization with overlap
     ethr =  1.56E-03,  avg # of iterations =  4.0

     total cpu time spent up to now is       26.7 secs

     total energy              =     -77.00097032 Ry
     Harris-Foulkes estimate   =     -77.25604512 Ry
     estimated scf accuracy    <       0.83320404 Ry

     iteration #  3     ecut=    80.00 Ry     beta= 0.40
     Davidson diagonalization with overlap
     ethr =  1.56E-03,  avg # of iterations =  3.0

     total cpu time spent up to now is       32.5 secs

     total energy              =     -77.12519640 Ry
     Harris-Foulkes estimate   =     -77.19113661 Ry
     estimated scf accuracy    <       0.30770305 Ry

     iteration #  4     ecut=    80.00 Ry     beta= 0.40
     Davidson diagonalization with overlap
     ethr =  6.03E-04,  avg # of iterations =  2.0

     total cpu time spent up to now is       37.6 secs

     total energy              =     -77.14813598 Ry
     Harris-Foulkes estimate   =     -77.16553571 Ry
     estimated scf accuracy    <       0.07481413 Ry

     iteration #  5     ecut=    80.00 Ry     beta= 0.40
     Davidson diagonalization with overlap
     ethr =  1.47E-04,  avg # of iterations =  3.0

     total cpu time spent up to now is       42.9 secs

     total energy              =     -77.15920298 Ry
     Harris-Foulkes estimate   =     -77.16177910 Ry
     estimated scf accuracy    <       0.01393519 Ry

     iteration #  6     ecut=    80.00 Ry     beta= 0.40
     Davidson diagonalization with overlap
     ethr =  2.73E-05,  avg # of iterations =  4.0

     total cpu time spent up to now is       50.0 secs

     total energy              =     -77.16168692 Ry
     Harris-Foulkes estimate   =     -77.16217196 Ry
     estimated scf accuracy    <       0.00270671 Ry

     iteration #  7     ecut=    80.00 Ry     beta= 0.40
     Davidson diagonalization with overlap
     ethr =  5.31E-06,  avg # of iterations =  3.0

     total cpu time spent up to now is       56.3 secs

     total energy              =     -77.16204466 Ry
     Harris-Foulkes estimate   =     -77.16212842 Ry
     estimated scf accuracy    <       0.00037334 Ry

     iteration #  8     ecut=    80.00 Ry     beta= 0.40
     Davidson diagonalization with overlap
     ethr =  7.32E-07,  avg # of iterations =  3.0

     total cpu time spent up to now is       62.9 secs

     total energy              =     -77.16208122 Ry
     Harris-Foulkes estimate   =     -77.16212368 Ry
     estimated scf accuracy    <       0.00018324 Ry

     iteration #  9     ecut=    80.00 Ry     beta= 0.40
     Davidson diagonalization with overlap
     ethr =  3.59E-07,  avg # of iterations =  3.0

     total cpu time spent up to now is       68.7 secs

     total energy              =     -77.16210327 Ry
     Harris-Foulkes estimate   =     -77.16212581 Ry
     estimated scf accuracy    <       0.00014984 Ry

     iteration # 10     ecut=    80.00 Ry     beta= 0.40
     Davidson diagonalization with overlap
     ethr =  2.94E-07,  avg # of iterations =  1.0

     total cpu time spent up to now is       74.5 secs

     total energy              =     -77.16211494 Ry
     Harris-Foulkes estimate   =     -77.16211601 Ry
     estimated scf accuracy    <       0.00000537 Ry

     iteration # 11     ecut=    80.00 Ry     beta= 0.40
     Davidson diagonalization with overlap
     ethr =  1.05E-08,  avg # of iterations =  5.0

     total cpu time spent up to now is       83.3 secs

     total energy              =     -77.16211754 Ry
     Harris-Foulkes estimate   =     -77.16211959 Ry
     estimated scf accuracy    <       0.00001222 Ry

     iteration # 12     ecut=    80.00 Ry     beta= 0.40
     Davidson diagonalization with overlap
     ethr =  1.05E-08,  avg # of iterations =  3.0

     total cpu time spent up to now is       89.6 secs

     total energy              =     -77.16211797 Ry
     Harris-Foulkes estimate   =     -77.16211871 Ry
     estimated scf accuracy    <       0.00000237 Ry

     iteration # 13     ecut=    80.00 Ry     beta= 0.40
     Davidson diagonalization with overlap
     ethr =  4.64E-09,  avg # of iterations =  3.0

     total cpu time spent up to now is       96.5 secs

     total energy              =     -77.16211832 Ry
     Harris-Foulkes estimate   =     -77.16211864 Ry
     estimated scf accuracy    <       0.00000106 Ry

     iteration # 14     ecut=    80.00 Ry     beta= 0.40
     Davidson diagonalization with overlap
     ethr =  2.08E-09,  avg # of iterations =  3.0

     total cpu time spent up to now is      102.5 secs

     total energy              =     -77.16211836 Ry
     Harris-Foulkes estimate   =     -77.16211859 Ry
     estimated scf accuracy    <       0.00000133 Ry

     iteration # 15     ecut=    80.00 Ry     beta= 0.40
     Davidson diagonalization with overlap
     ethr =  2.08E-09,  avg # of iterations =  1.0

     total cpu time spent up to now is      107.7 secs

     End of self-consistent calculation

          k = 0.0000 0.0000 0.0000 (252395 PWs)   bands (ev):

    -9.9964  -9.1543  -9.0980  -9.0979  -9.0597  -9.0596  -8.4087  -7.5382
    -7.4673  -7.4672  -6.7263  -5.8849  -5.8791  -5.8791  -5.6093  -5.6092
    -4.7519  -4.7519  -4.0025  -3.5337  -3.3089  -3.2899  -3.2898  -3.2354
    -3.1475  -3.1133  -3.1133  -3.0989  -3.0988  -2.7511  -2.7510

     the Fermi energy is    -3.1135 ev

!    total energy              =     -77.16211831 Ry
     Harris-Foulkes estimate   =     -77.16211849 Ry
     estimated scf accuracy    <       0.00000019 Ry

     The total energy is the sum of the following terms:

     one-electron contribution =    -269.13928085 Ry
     hartree contribution      =     139.26331122 Ry
     xc contribution           =     -33.51704732 Ry
     ewald contribution        =      86.35212146 Ry
     smearing contrib. (-TS)   =      -0.12122282 Ry

     convergence has been achieved in  15 iterations

     Forces acting on atoms (cartesian axes, Ry/au):

     atom    1 type  1   force =    -0.00464625   -0.00194475    0.00000000
     atom    2 type  1   force =    -0.00000197   -0.00069283    0.00000000
     atom    3 type  1   force =     0.00466507   -0.00194868    0.00000000
     atom    4 type  1   force =    -0.00823540   -0.00474127    0.00000000
     atom    5 type  1   force =    -0.00400563   -0.00305989    0.00000000
     atom    6 type  1   force =     0.01928297    0.01113520    0.00000000
     atom    7 type  1   force =    -0.01928721    0.01112284    0.00000000
     atom    8 type  1   force =     0.00001569   -0.00001013    0.00000000
     atom    9 type  1   force =    -0.00061671    0.00036290    0.00000000
     atom   10 type  1   force =     0.00064444    0.00499849    0.00000000
     atom   11 type  1   force =    -0.00000990   -0.02226299    0.00000000
     atom   12 type  1   force =    -0.00000100    0.00000088    0.00000000
     atom   13 type  1   force =     0.00822072   -0.00474481    0.00000000
     atom   14 type  1   force =     0.00401947   -0.00306658    0.00000000
     atom   15 type  1   force =    -0.00001077    0.00949872    0.00000000
     atom   16 type  1   force =    -0.00063907    0.00499471    0.00000000
     atom   17 type  1   force =     0.00060556    0.00035818    0.00000000

     Total force =     0.043726     Total SCF correction =     0.000311


     Computing stress (Cartesian axis) and pressure

          total   stress  (Ry/bohr**3)                   (kbar)     P=   -0.80
  -0.00000821   0.00000001   0.00000000         -1.21      0.00      0.00
   0.00000001  -0.00000820   0.00000000          0.00     -1.21      0.00
   0.00000000   0.00000000   0.00000001          0.00      0.00      0.00


     BFGS Geometry Optimization

     number of scf cycles    =   1
     number of bfgs steps    =   0

     enthalpy new            =     -77.1621183094 Ry

     new trust radius        =       0.0222671464 bohr
     new conv_thr            =       0.0000010000 Ry

     new unit-cell volume =  20877.23341 a.u.^3 (  3093.68677 Ang^3 )
     density =      0.27358 g/cm^3

CELL_PARAMETERS (alat= 25.26072511)
   0.999794757   0.000000229   0.000000000
  -0.499897180   0.865847772   0.000000000
   0.000000000   0.000000000   1.496177267

ATOMIC_POSITIONS (angstrom)
Al      -0.002457009   2.571031638   0.000000000
Al       2.227468725   1.285663721   0.000000000
Al       4.457374415   2.571048773   0.000000000
Al       6.678018952   1.283541031   0.000000000
Al      -2.229555750   6.428513259   0.000000000
Al       0.010235289   5.149993172   0.000000000
Al       4.444735288   5.150005842   0.000000000
Al      -4.454864692  10.288198399   0.000000000
Al      -2.227729511   9.002365487   0.000000000
Al       0.000374231  10.290867515   0.000000000
Al       2.227497803   8.990414050   0.000000000
Al       8.909812019   2.572099435   0.000000000
Al      11.141631638   1.283558374   0.000000000
Al       6.684502622   6.428548149   0.000000000
Al       8.909840120   5.149165785   0.000000000
Al       4.454601439  10.290884730   0.000000000
Al       6.682729697   9.002401417   0.000000000



     Writing output data file 7al_planar_2x2_vcr.save/
     NEW-OLD atomic charge density approx. for the potential

     negative rho (up, down):  3.809E-07 0.000E+00
     extrapolated charge   50.97909, renormalised to   51.00000

     total cpu time spent up to now is      147.9 secs

     Self-consistent Calculation

     iteration #  1     ecut=    80.00 Ry     beta= 0.40
     Davidson diagonalization with overlap
     ethr =  1.00E-06,  avg # of iterations =  4.0

     negative rho (up, down):  1.934E-07 0.000E+00

     total cpu time spent up to now is      157.2 secs

     total energy              =     -77.16399735 Ry
     Harris-Foulkes estimate   =     -77.26499373 Ry
     estimated scf accuracy    <       0.00013330 Ry

     iteration #  2     ecut=    80.00 Ry     beta= 0.40
     Davidson diagonalization with overlap
     ethr =  2.61E-07,  avg # of iterations =  6.0

     negative rho (up, down):  1.673E-07 0.000E+00

     total cpu time spent up to now is      170.8 secs

     total energy              =     -77.16398452 Ry
     Harris-Foulkes estimate   =     -77.16412897 Ry
     estimated scf accuracy    <       0.00083020 Ry

     iteration #  3     ecut=    80.00 Ry     beta= 0.40
     Davidson diagonalization with overlap
     ethr =  2.61E-07,  avg # of iterations =  5.0

     negative rho (up, down):  1.180E-07 0.000E+00

     total cpu time spent up to now is      181.9 secs

     total energy              =     -77.16405079 Ry
     Harris-Foulkes estimate   =     -77.16406245 Ry
     estimated scf accuracy    <       0.00004979 Ry

     iteration #  4     ecut=    80.00 Ry     beta= 0.40
     Davidson diagonalization with overlap
     ethr =  9.76E-08,  avg # of iterations =  6.0

     negative rho (up, down):  7.941E-08 0.000E+00

     total cpu time spent up to now is      190.5 secs

     total energy              =     -77.16405489 Ry
     Harris-Foulkes estimate   =     -77.16405978 Ry
     estimated scf accuracy    <       0.00002048 Ry

     iteration #  5     ecut=    80.00 Ry     beta= 0.40
     Davidson diagonalization with overlap
     ethr =  4.01E-08,  avg # of iterations =  4.0

     negative rho (up, down):  2.618E-08 0.000E+00

     total cpu time spent up to now is      200.8 secs

     total energy              =     -77.16405750 Ry
     Harris-Foulkes estimate   =     -77.16405826 Ry
     estimated scf accuracy    <       0.00000418 Ry

     iteration #  6     ecut=    80.00 Ry     beta= 0.40
     Davidson diagonalization with overlap
     ethr =  8.20E-09,  avg # of iterations =  3.0

     total cpu time spent up to now is      208.3 secs

     End of self-consistent calculation

          k = 0.0000 0.0000 0.0000 (252395 PWs)   bands (ev):

    -9.9965  -9.1518  -9.0995  -9.0993  -9.0560  -9.0558  -8.4044  -7.5361
    -7.4658  -7.4658  -6.7341  -5.8836  -5.8720  -5.8720  -5.6131  -5.6130
    -4.7565  -4.7564  -4.0022  -3.5555  -3.2992  -3.2865  -3.2864  -3.2414
    -3.1451  -3.1121  -3.1119  -3.0978  -3.0977  -2.7448  -2.7447

     the Fermi energy is    -3.1122 ev

!    total energy              =     -77.16405796 Ry
     Harris-Foulkes estimate   =     -77.16405844 Ry
     estimated scf accuracy    <       0.00000083 Ry

     The total energy is the sum of the following terms:

     one-electron contribution =    -269.17508656 Ry
     hartree contribution      =     139.27924736 Ry
     xc contribution           =     -33.51210046 Ry
     ewald contribution        =      86.36406989 Ry
     smearing contrib. (-TS)   =      -0.12018820 Ry

     convergence has been achieved in   6 iterations

     Forces acting on atoms (cartesian axes, Ry/au):

     atom    1 type  1   force =    -0.00400056   -0.00056773    0.00000000
     atom    2 type  1   force =    -0.00001416   -0.00028881    0.00000000
     atom    3 type  1   force =     0.00400902   -0.00058512    0.00000000
     atom    4 type  1   force =    -0.00681185   -0.00393995    0.00000000
     atom    5 type  1   force =    -0.00249383   -0.00315908    0.00000000
     atom    6 type  1   force =     0.01912536    0.01105358    0.00000000
     atom    7 type  1   force =    -0.01914063    0.01106416    0.00000000
     atom    8 type  1   force =     0.00001540   -0.00002398    0.00000000
     atom    9 type  1   force =    -0.00025260    0.00013841    0.00000000
     atom   10 type  1   force =     0.00148392    0.00373520    0.00000000
     atom   11 type  1   force =     0.00000166   -0.02209020    0.00000000
     atom   12 type  1   force =     0.00001199    0.00001160    0.00000000
     atom   13 type  1   force =     0.00680652   -0.00394507    0.00000000
     atom   14 type  1   force =     0.00252277   -0.00316644    0.00000000
     atom   15 type  1   force =    -0.00000804    0.00787594    0.00000000
     atom   16 type  1   force =    -0.00148693    0.00374395    0.00000000
     atom   17 type  1   force =     0.00023197    0.00014354    0.00000000

     Total force =     0.041815     Total SCF correction =     0.000587


     Computing stress (Cartesian axis) and pressure

          total   stress  (Ry/bohr**3)                   (kbar)     P=   -0.87
  -0.00000887   0.00000000   0.00000000         -1.30      0.00      0.00
   0.00000000  -0.00000886   0.00000000          0.00     -1.30      0.00
   0.00000000   0.00000000   0.00000005          0.00      0.00      0.01


     number of scf cycles    =   2
     number of bfgs steps    =   1

     enthalpy old            =     -77.1621183094 Ry
     enthalpy new            =     -77.1640579621 Ry

     CASE: enthalpy_new < enthalpy_old


     WARNING: bfgs curvature condition failed, Theta= 0.837
     new trust radius        =       0.0333938731 bohr
     new conv_thr            =       0.0000010000 Ry

     new unit-cell volume =  20863.81835 a.u.^3 (  3091.69886 Ang^3 )
     density =      0.27375 g/cm^3

CELL_PARAMETERS (alat= 25.26072511)
   0.999473296   0.000000493   0.000000000
  -0.499736221   0.865569578   0.000000000
   0.000000000   0.000000000   1.496177267

ATOMIC_POSITIONS (angstrom)
Al      -0.005895337   2.569211571   0.000000000
Al       2.226746396   1.284862337   0.000000000
Al       4.459392535   2.569221334   0.000000000
Al       6.669887452   1.279677757   0.000000000
Al      -2.231418345   6.423971792   0.000000000
Al       0.025524242   5.157172991   0.000000000
Al       4.428008857   5.157186198   0.000000000
Al      -4.453417241  10.284879579   0.000000000
Al      -2.227355399   8.999672458   0.000000000
Al       0.001227792  10.291034394   0.000000000
Al       2.226780731   8.969869751   0.000000000
Al       8.906952382   2.571280785   0.000000000
Al      11.144026385   1.279692824   0.000000000
Al       6.684953316   6.424003428   0.000000000
Al       8.906969250   5.154424945   0.000000000
Al       4.452321815  10.291054811   0.000000000
Al       6.680915236   8.999710934   0.000000000



     Writing output data file 7al_planar_2x2_vcr.save/
     NEW-OLD atomic charge density approx. for the potential

     negative rho (up, down):  6.052E-07 0.000E+00
     extrapolated charge   50.96723, renormalised to   51.00000

     total cpu time spent up to now is      250.0 secs

     Self-consistent Calculation

     iteration #  1     ecut=    80.00 Ry     beta= 0.40
     Davidson diagonalization with overlap
     ethr =  1.00E-06,  avg # of iterations =  4.0

     negative rho (up, down):  3.123E-07 0.000E+00

     total cpu time spent up to now is      260.2 secs

     total energy              =     -77.16666584 Ry
     Harris-Foulkes estimate   =     -77.32498038 Ry
     estimated scf accuracy    <       0.00025675 Ry

     iteration #  2     ecut=    80.00 Ry     beta= 0.40
     Davidson diagonalization with overlap
     ethr =  5.03E-07,  avg # of iterations =  5.0

     negative rho (up, down):  2.642E-07 0.000E+00

     total cpu time spent up to now is      267.7 secs

     total energy              =     -77.16667371 Ry
     Harris-Foulkes estimate   =     -77.16689348 Ry
     estimated scf accuracy    <       0.00111202 Ry

     iteration #  3     ecut=    80.00 Ry     beta= 0.40
     Davidson diagonalization with overlap
     ethr =  5.03E-07,  avg # of iterations =  3.0

     negative rho (up, down):  1.978E-07 0.000E+00

     total cpu time spent up to now is      274.2 secs

     total energy              =     -77.16676782 Ry
     Harris-Foulkes estimate   =     -77.16679464 Ry
     estimated scf accuracy    <       0.00012190 Ry

     iteration #  4     ecut=    80.00 Ry     beta= 0.40
     Davidson diagonalization with overlap
     ethr =  2.39E-07,  avg # of iterations =  3.0

     negative rho (up, down):  1.403E-07 0.000E+00

     total cpu time spent up to now is      279.4 secs

     total energy              =     -77.16677579 Ry
     Harris-Foulkes estimate   =     -77.16678752 Ry
     estimated scf accuracy    <       0.00005447 Ry

     iteration #  5     ecut=    80.00 Ry     beta= 0.40
     Davidson diagonalization with overlap
     ethr =  1.07E-07,  avg # of iterations =  1.0

     negative rho (up, down):  4.369E-08 0.000E+00

     total cpu time spent up to now is      284.1 secs

     total energy              =     -77.16678124 Ry
     Harris-Foulkes estimate   =     -77.16678314 Ry
     estimated scf accuracy    <       0.00000984 Ry

     iteration #  6     ecut=    80.00 Ry     beta= 0.40
     Davidson diagonalization with overlap
     ethr =  1.93E-08,  avg # of iterations =  4.0

     negative rho (up, down):  2.552E-08 0.000E+00

     total cpu time spent up to now is      290.1 secs

     total energy              =     -77.16678186 Ry
     Harris-Foulkes estimate   =     -77.16678455 Ry
     estimated scf accuracy    <       0.00001290 Ry

     iteration #  7     ecut=    80.00 Ry     beta= 0.40
     Davidson diagonalization with overlap
     ethr =  1.93E-08,  avg # of iterations =  2.0

     negative rho (up, down):  1.740E-08 0.000E+00

     total cpu time spent up to now is      295.1 secs

     total energy              =     -77.16678317 Ry
     Harris-Foulkes estimate   =     -77.16678353 Ry
     estimated scf accuracy    <       0.00000173 Ry

     iteration #  8     ecut=    80.00 Ry     beta= 0.40
     Davidson diagonalization with overlap
     ethr =  3.38E-09,  avg # of iterations =  5.0

     total cpu time spent up to now is      300.9 secs

     End of self-consistent calculation

          k = 0.0000 0.0000 0.0000 (252395 PWs)   bands (ev):

    -9.9960  -9.1474  -9.1020  -9.1017  -9.0489  -9.0485  -8.3977  -7.5323
    -7.4629  -7.4627  -6.7446  -5.8808  -5.8613  -5.8611  -5.6178  -5.6176
    -4.7624  -4.7624  -4.0013  -3.5881  -3.2845  -3.2803  -3.2802  -3.2487
    -3.1409  -3.1122  -3.1119  -3.0934  -3.0930  -2.7350  -2.7349

     the Fermi energy is    -3.1095 ev

!    total energy              =     -77.16678296 Ry
     Harris-Foulkes estimate   =     -77.16678353 Ry
     estimated scf accuracy    <       0.00000085 Ry

     The total energy is the sum of the following terms:

     one-electron contribution =    -269.23275797 Ry
     hartree contribution      =     139.30372515 Ry
     xc contribution           =     -33.50461844 Ry
     ewald contribution        =      86.38554225 Ry
     smearing contrib. (-TS)   =      -0.11867395 Ry

     convergence has been achieved in   8 iterations

     Forces acting on atoms (cartesian axes, Ry/au):

     atom    1 type  1   force =    -0.00301647    0.00132323    0.00000000
     atom    2 type  1   force =    -0.00002316    0.00036030    0.00000000
     atom    3 type  1   force =     0.00303549    0.00128413    0.00000000
     atom    4 type  1   force =    -0.00493714   -0.00285529    0.00000000
     atom    5 type  1   force =    -0.00037664   -0.00328067    0.00000000
     atom    6 type  1   force =     0.01885571    0.01088965    0.00000000
     atom    7 type  1   force =    -0.01890224    0.01090575    0.00000000
     atom    8 type  1   force =     0.00002230    0.00000354    0.00000000
     atom    9 type  1   force =     0.00029553   -0.00019220    0.00000000
     atom   10 type  1   force =     0.00263680    0.00197651    0.00000000
     atom   11 type  1   force =    -0.00000758   -0.02180912    0.00000000
     atom   12 type  1   force =    -0.00000478    0.00000390    0.00000000
     atom   13 type  1   force =     0.00494475   -0.00283767    0.00000000
     atom   14 type  1   force =     0.00041628   -0.00329277    0.00000000
     atom   15 type  1   force =     0.00001990    0.00571698    0.00000000
     atom   16 type  1   force =    -0.00265901    0.00197347    0.00000000
     atom   17 type  1   force =    -0.00029972   -0.00016973    0.00000000

     Total force =     0.039869     Total SCF correction =     0.000611


     Computing stress (Cartesian axis) and pressure

          total   stress  (Ry/bohr**3)                   (kbar)     P=   -0.96
  -0.00000981   0.00000000   0.00000000         -1.44      0.00      0.00
   0.00000000  -0.00000980   0.00000000          0.00     -1.44      0.00
   0.00000000   0.00000000   0.00000006          0.00      0.00      0.01


     number of scf cycles    =   3
     number of bfgs steps    =   2

     enthalpy old            =     -77.1640579621 Ry
     enthalpy new            =     -77.1667829583 Ry

     CASE: enthalpy_new < enthalpy_old

     new trust radius        =       0.0500746975 bohr
     new conv_thr            =       0.0000010000 Ry

     new unit-cell volume =  20842.39725 a.u.^3 (  3088.52458 Ang^3 )
     density =      0.27404 g/cm^3

CELL_PARAMETERS (alat= 25.26072511)
   0.998959790   0.000000851   0.000000000
  -0.499479158   0.865125191   0.000000000
   0.000000000   0.000000000   1.496177267

ATOMIC_POSITIONS (angstrom)
Al      -0.010466359   2.567569273   0.000000000
Al       2.225587798   1.284025093   0.000000000
Al       4.461701394   2.567554071   0.000000000
Al       6.658590520   1.274485907   0.000000000
Al      -2.232845751   6.416861136   0.000000000
Al       0.048423983   5.167756215   0.000000000
Al       4.402792686   5.167772205   0.000000000
Al      -4.451102161  10.279598602   0.000000000
Al      -2.226384316   8.995145966   0.000000000
Al       0.003233129  10.289897574   0.000000000
Al       2.225628007   8.938790247   0.000000000
Al       8.902371691   2.569966096   0.000000000
Al      11.146167942   1.274512735   0.000000000
Al       6.684129172   6.416884378   0.000000000
Al       8.902402194   5.160873417   0.000000000
Al       4.448024773  10.289913896   0.000000000
Al       6.677654959   8.995198908   0.000000000



     Writing output data file 7al_planar_2x2_vcr.save/
     NEW-OLD atomic charge density approx. for the potential

     negative rho (up, down):  9.271E-07 0.000E+00
     extrapolated charge   50.94763, renormalised to   51.00000

     total cpu time spent up to now is      341.2 secs

     Self-consistent Calculation

     iteration #  1     ecut=    80.00 Ry     beta= 0.40
     Davidson diagonalization with overlap
     ethr =  1.00E-06,  avg # of iterations =  6.0

     negative rho (up, down):  4.847E-07 0.000E+00

     total cpu time spent up to now is      349.8 secs

     total energy              =     -77.17035166 Ry
     Harris-Foulkes estimate   =     -77.42352908 Ry
     estimated scf accuracy    <       0.00046352 Ry

     iteration #  2     ecut=    80.00 Ry     beta= 0.40
     Davidson diagonalization with overlap
     ethr =  9.09E-07,  avg # of iterations =  5.0

     negative rho (up, down):  4.162E-07 0.000E+00

     total cpu time spent up to now is      356.3 secs

     total energy              =     -77.17037036 Ry
     Harris-Foulkes estimate   =     -77.17082623 Ry
     estimated scf accuracy    <       0.00248143 Ry

     iteration #  3     ecut=    80.00 Ry     beta= 0.40
     Davidson diagonalization with overlap
     ethr =  9.09E-07,  avg # of iterations =  5.0

     negative rho (up, down):  3.264E-07 0.000E+00

     total cpu time spent up to now is      362.1 secs

     total energy              =     -77.17056147 Ry
     Harris-Foulkes estimate   =     -77.17061056 Ry
     estimated scf accuracy    <       0.00023979 Ry

     iteration #  4     ecut=    80.00 Ry     beta= 0.40
     Davidson diagonalization with overlap
     ethr =  4.70E-07,  avg # of iterations =  3.0

     negative rho (up, down):  2.357E-07 0.000E+00

     total cpu time spent up to now is      367.0 secs

     total energy              =     -77.17057489 Ry
     Harris-Foulkes estimate   =     -77.17059304 Ry
     estimated scf accuracy    <       0.00008553 Ry

     iteration #  5     ecut=    80.00 Ry     beta= 0.40
     Davidson diagonalization with overlap
     ethr =  1.68E-07,  avg # of iterations =  2.0

     negative rho (up, down):  8.495E-08 0.000E+00

     total cpu time spent up to now is      371.7 secs

     total energy              =     -77.17058027 Ry
     Harris-Foulkes estimate   =     -77.17058668 Ry
     estimated scf accuracy    <       0.00002860 Ry

     iteration #  6     ecut=    80.00 Ry     beta= 0.40
     Davidson diagonalization with overlap
     ethr =  5.61E-08,  avg # of iterations =  4.0

     negative rho (up, down):  4.039E-08 0.000E+00

     total cpu time spent up to now is      377.3 secs

     total energy              =     -77.17058082 Ry
     Harris-Foulkes estimate   =     -77.17059016 Ry
     estimated scf accuracy    <       0.00004973 Ry

     iteration #  7     ecut=    80.00 Ry     beta= 0.40
     Davidson diagonalization with overlap
     ethr =  5.61E-08,  avg # of iterations =  4.0

     negative rho (up, down):  2.416E-08 0.000E+00

     total cpu time spent up to now is      382.5 secs

     total energy              =     -77.17058585 Ry
     Harris-Foulkes estimate   =     -77.17058664 Ry
     estimated scf accuracy    <       0.00000411 Ry

     iteration #  8     ecut=    80.00 Ry     beta= 0.40
     Davidson diagonalization with overlap
     ethr =  8.06E-09,  avg # of iterations =  4.0

     negative rho (up, down):  1.729E-08 0.000E+00

     total cpu time spent up to now is      388.2 secs

     total energy              =     -77.17058626 Ry
     Harris-Foulkes estimate   =     -77.17058670 Ry
     estimated scf accuracy    <       0.00000231 Ry

     iteration #  9     ecut=    80.00 Ry     beta= 0.40
     Davidson diagonalization with overlap
     ethr =  4.53E-09,  avg # of iterations =  3.0

     total cpu time spent up to now is      393.0 secs

     End of self-consistent calculation

          k = 0.0000 0.0000 0.0000 (252395 PWs)   bands (ev):

    -9.9958  -9.1422  -9.1060  -9.1058  -9.0389  -9.0388  -8.3910  -7.5270
    -7.4590  -7.4588  -6.7604  -5.8764  -5.8473  -5.8473  -5.6242  -5.6242
    -4.7718  -4.7717  -4.0003  -3.6400  -3.2715  -3.2714  -3.2667  -3.2550
    -3.1355  -3.1137  -3.1136  -3.0857  -3.0856  -2.7218  -2.7217

     the Fermi energy is    -3.1055 ev

!    total energy              =     -77.17058615 Ry
     Harris-Foulkes estimate   =     -77.17058657 Ry
     estimated scf accuracy    <       0.00000074 Ry

     The total energy is the sum of the following terms:

     one-electron contribution =    -269.33357577 Ry
     hartree contribution      =     139.34833418 Ry
     xc contribution           =     -33.49439146 Ry
     ewald contribution        =      86.42555283 Ry
     smearing contrib. (-TS)   =      -0.11650593 Ry

     convergence has been achieved in   9 iterations

     Forces acting on atoms (cartesian axes, Ry/au):

     atom    1 type  1   force =    -0.00169221    0.00383000    0.00000000
     atom    2 type  1   force =     0.00000035    0.00113380    0.00000000
     atom    3 type  1   force =     0.00169652    0.00382489    0.00000000
     atom    4 type  1   force =    -0.00251807   -0.00145954    0.00000000
     atom    5 type  1   force =     0.00247179   -0.00336814    0.00000000
     atom    6 type  1   force =     0.01845418    0.01065536    0.00000000
     atom    7 type  1   force =    -0.01844974    0.01065613    0.00000000
     atom    8 type  1   force =     0.00000222   -0.00000248    0.00000000
     atom    9 type  1   force =     0.00098906   -0.00057027    0.00000000
     atom   10 type  1   force =     0.00415225   -0.00045074    0.00000000
     atom   11 type  1   force =     0.00000062   -0.02130203    0.00000000
     atom   12 type  1   force =    -0.00001133   -0.00000227    0.00000000
     atom   13 type  1   force =     0.00252977   -0.00145833    0.00000000
     atom   14 type  1   force =    -0.00247661   -0.00336611    0.00000000
     atom   15 type  1   force =    -0.00000198    0.00291681    0.00000000
     atom   16 type  1   force =    -0.00415307   -0.00046125    0.00000000
     atom   17 type  1   force =    -0.00099375   -0.00057583    0.00000000

     Total force =     0.038679     Total SCF correction =     0.000491


     Computing stress (Cartesian axis) and pressure

          total   stress  (Ry/bohr**3)                   (kbar)     P=   -1.09
  -0.00001115   0.00000000   0.00000000         -1.64      0.00      0.00
   0.00000000  -0.00001116   0.00000000          0.00     -1.64      0.00
   0.00000000   0.00000000   0.00000010          0.00      0.00      0.02


     number of scf cycles    =   4
     number of bfgs steps    =   3

     enthalpy old            =     -77.1667829583 Ry
     enthalpy new            =     -77.1705861541 Ry

     CASE: enthalpy_new < enthalpy_old

     new trust radius        =       0.0750734430 bohr
     new conv_thr            =       0.0000010000 Ry

     new unit-cell volume =  20808.57466 a.u.^3 (  3083.51259 Ang^3 )
     density =      0.27448 g/cm^3

CELL_PARAMETERS (alat= 25.26072511)
   0.998148775   0.000001467   0.000000000
  -0.499073117   0.864422766   0.000000000
   0.000000000   0.000000000   1.496177267

ATOMIC_POSITIONS (angstrom)
Al      -0.016640643   2.566353352   0.000000000
Al       2.223777569   1.283125259   0.000000000
Al       4.464290536   2.566328518   0.000000000
Al       6.642593784   1.267351044   0.000000000
Al      -2.233369386   6.405857747   0.000000000
Al       0.082762904   5.183410767   0.000000000
Al       4.364838741   5.183418073   0.000000000
Al      -4.447461797  10.271244202   0.000000000
Al      -2.224464799   8.987787883   0.000000000
Al       0.007079193  10.286476275   0.000000000
Al       2.223814823   8.891846711   0.000000000
Al       8.895134547   2.567884464   0.000000000
Al      11.147705631   1.267381430   0.000000000
Al       6.681061731   6.405879507   0.000000000
Al       8.895169484   5.168917108   0.000000000
Al       4.440579312  10.286482348   0.000000000
Al       6.672119379   8.987840661   0.000000000



     Writing output data file 7al_planar_2x2_vcr.save/
     NEW-OLD atomic charge density approx. for the potential

     negative rho (up, down):  1.407E-06 0.000E+00
     extrapolated charge   50.91717, renormalised to   51.00000

     total cpu time spent up to now is      433.2 secs

     Self-consistent Calculation

     iteration #  1     ecut=    80.00 Ry     beta= 0.40
     Davidson diagonalization with overlap
     ethr =  1.00E-06,  avg # of iterations =  7.0

     negative rho (up, down):  7.487E-07 0.000E+00

     total cpu time spent up to now is      442.3 secs

     total energy              =     -77.17528359 Ry
     Harris-Foulkes estimate   =     -77.57612803 Ry
     estimated scf accuracy    <       0.00107096 Ry

     iteration #  2     ecut=    80.00 Ry     beta= 0.40
     Davidson diagonalization with overlap
     ethr =  2.10E-06,  avg # of iterations =  5.0

     negative rho (up, down):  6.406E-07 0.000E+00

     total cpu time spent up to now is      449.1 secs

     total energy              =     -77.17538605 Ry
     Harris-Foulkes estimate   =     -77.17648415 Ry
     estimated scf accuracy    <       0.00592532 Ry

     iteration #  3     ecut=    80.00 Ry     beta= 0.40
     Davidson diagonalization with overlap
     ethr =  2.10E-06,  avg # of iterations =  4.0

     negative rho (up, down):  5.158E-07 0.000E+00

     total cpu time spent up to now is      454.8 secs

     total energy              =     -77.17583022 Ry
     Harris-Foulkes estimate   =     -77.17591295 Ry
     estimated scf accuracy    <       0.00041121 Ry

     iteration #  4     ecut=    80.00 Ry     beta= 0.40
     Davidson diagonalization with overlap
     ethr =  8.06E-07,  avg # of iterations =  5.0

     negative rho (up, down):  3.848E-07 0.000E+00

     total cpu time spent up to now is      460.0 secs

     total energy              =     -77.17584794 Ry
     Harris-Foulkes estimate   =     -77.17588577 Ry
     estimated scf accuracy    <       0.00020799 Ry

     iteration #  5     ecut=    80.00 Ry     beta= 0.40
     Davidson diagonalization with overlap
     ethr =  4.08E-07,  avg # of iterations =  4.0

     negative rho (up, down):  6.454E-08 0.000E+00

     total cpu time spent up to now is      464.8 secs

     total energy              =     -77.17585269 Ry
     Harris-Foulkes estimate   =     -77.17586875 Ry
     estimated scf accuracy    <       0.00006894 Ry

     iteration #  6     ecut=    80.00 Ry     beta= 0.40
     Davidson diagonalization with overlap
     ethr =  1.35E-07,  avg # of iterations =  4.0

     negative rho (up, down):  4.473E-08 0.000E+00

     total cpu time spent up to now is      470.5 secs

     total energy              =     -77.17586423 Ry
     Harris-Foulkes estimate   =     -77.17586832 Ry
     estimated scf accuracy    <       0.00001844 Ry

     iteration #  7     ecut=    80.00 Ry     beta= 0.40
     Davidson diagonalization with overlap
     ethr =  3.62E-08,  avg # of iterations =  4.0

     negative rho (up, down):  3.516E-08 0.000E+00

     total cpu time spent up to now is      475.8 secs

     total energy              =     -77.17586509 Ry
     Harris-Foulkes estimate   =     -77.17586777 Ry
     estimated scf accuracy    <       0.00001522 Ry

     iteration #  8     ecut=    80.00 Ry     beta= 0.40
     Davidson diagonalization with overlap
     ethr =  2.98E-08,  avg # of iterations =  1.0

     negative rho (up, down):  1.084E-08 0.000E+00

     total cpu time spent up to now is      480.5 secs

     total energy              =     -77.17586554 Ry
     Harris-Foulkes estimate   =     -77.17586644 Ry
     estimated scf accuracy    <       0.00000340 Ry

     iteration #  9     ecut=    80.00 Ry     beta= 0.40
     Davidson diagonalization with overlap
     ethr =  6.67E-09,  avg # of iterations =  4.0

     total cpu time spent up to now is      486.5 secs

     total energy              =     -77.17586589 Ry
     Harris-Foulkes estimate   =     -77.17586669 Ry
     estimated scf accuracy    <       0.00000532 Ry

     iteration # 10     ecut=    80.00 Ry     beta= 0.40
     Davidson diagonalization with overlap
     ethr =  6.67E-09,  avg # of iterations =  1.0

     total cpu time spent up to now is      491.0 secs

     End of self-consistent calculation

          k = 0.0000 0.0000 0.0000 (252395 PWs)   bands (ev):

    -9.9944  -9.1336  -9.1101  -9.1099  -9.0239  -9.0237  -8.3843  -7.5175
    -7.4522  -7.4521  -6.7838  -5.8675  -5.8276  -5.8274  -5.6320  -5.6319
    -4.7846  -4.7845  -3.9980  -3.7241  -3.2732  -3.2567  -3.2566  -3.2270
    -3.1267  -3.1148  -3.1147  -3.0739  -3.0738  -2.7021  -2.7020

     the Fermi energy is    -3.0977 ev

!    total energy              =     -77.17586565 Ry
     Harris-Foulkes estimate   =     -77.17586629 Ry
     estimated scf accuracy    <       0.00000078 Ry

     The total energy is the sum of the following terms:

     one-electron contribution =    -269.50028222 Ry
     hartree contribution      =     139.41922698 Ry
     xc contribution           =     -33.47909353 Ry
     ewald contribution        =      86.49792320 Ry
     smearing contrib. (-TS)   =      -0.11364008 Ry

     convergence has been achieved in  10 iterations

     Forces acting on atoms (cartesian axes, Ry/au):

     atom    1 type  1   force =     0.00030070    0.00725010    0.00000000
     atom    2 type  1   force =    -0.00000405    0.00218254    0.00000000
     atom    3 type  1   force =    -0.00034022    0.00724563    0.00000000
     atom    4 type  1   force =     0.00074999    0.00041479    0.00000000
     atom    5 type  1   force =     0.00642370   -0.00333816    0.00000000
     atom    6 type  1   force =     0.01748271    0.01010617    0.00000000
     atom    7 type  1   force =    -0.01750050    0.01010837    0.00000000
     atom    8 type  1   force =    -0.00001987   -0.00001679    0.00000000
     atom    9 type  1   force =     0.00190640   -0.00111299    0.00000000
     atom   10 type  1   force =     0.00609481   -0.00392469    0.00000000
     atom   11 type  1   force =    -0.00000161   -0.02018916    0.00000000
     atom   12 type  1   force =     0.00002177    0.00001682    0.00000000
     atom   13 type  1   force =    -0.00072931    0.00041039    0.00000000
     atom   14 type  1   force =    -0.00641220   -0.00332304    0.00000000
     atom   15 type  1   force =     0.00001407   -0.00083766    0.00000000
     atom   16 type  1   force =    -0.00609221   -0.00389324    0.00000000
     atom   17 type  1   force =    -0.00189419   -0.00109907    0.00000000

     Total force =     0.039434     Total SCF correction =     0.000732


     Computing stress (Cartesian axis) and pressure

          total   stress  (Ry/bohr**3)                   (kbar)     P=   -1.28
  -0.00001309  -0.00000000   0.00000000         -1.93     -0.00      0.00
  -0.00000000  -0.00001310   0.00000000         -0.00     -1.93      0.00
   0.00000000   0.00000000   0.00000000          0.00      0.00      0.00


     number of scf cycles    =   5
     number of bfgs steps    =   4

     enthalpy old            =     -77.1705861541 Ry
     enthalpy new            =     -77.1758656520 Ry

     CASE: enthalpy_new < enthalpy_old

     new trust radius        =       0.1125186886 bohr
     new conv_thr            =       0.0000010000 Ry

     new unit-cell volume =  20755.27566 a.u.^3 (  3075.61450 Ang^3 )
     density =      0.27519 g/cm^3

CELL_PARAMETERS (alat= 25.26072511)
   0.996869371   0.000002191   0.000000000
  -0.498432788   0.863314851   0.000000000
   0.000000000   0.000000000   1.496177267

ATOMIC_POSITIONS (angstrom)
Al      -0.024919642   2.566123497   0.000000000
Al       2.220918270   1.282219515   0.000000000
Al       4.466879559   2.566084375   0.000000000
Al       6.619673820   1.257422617   0.000000000
Al      -2.232008377   6.388933090   0.000000000
Al       0.134140698   5.206504402   0.000000000
Al       4.307739828   5.206497520   0.000000000
Al      -4.441737773  10.258053767   0.000000000
Al      -2.220987639   8.975911869   0.000000000
Al       0.013858734  10.278939125   0.000000000
Al       2.220950875   8.821009383   0.000000000
Al       8.883744855   2.564613965   0.000000000
Al      11.147818619   1.257451502   0.000000000
Al       6.674045945   6.388959501   0.000000000
Al       8.883768268   5.178942799   0.000000000
Al       4.428120359  10.278961600   0.000000000
Al       6.662944549   8.975976475   0.000000000



     Writing output data file 7al_planar_2x2_vcr.save/
     NEW-OLD atomic charge density approx. for the potential

     negative rho (up, down):  2.102E-06 0.000E+00
     extrapolated charge   50.86914, renormalised to   51.00000

     total cpu time spent up to now is      531.2 secs

     Self-consistent Calculation

     iteration #  1     ecut=    80.00 Ry     beta= 0.40
     Davidson diagonalization with overlap
     ethr =  1.00E-06,  avg # of iterations =  8.0

     negative rho (up, down):  1.139E-06 0.000E+00

     total cpu time spent up to now is      541.9 secs

     total energy              =     -77.18109185 Ry
     Harris-Foulkes estimate   =     -77.81591972 Ry
     estimated scf accuracy    <       0.00312935 Ry

     iteration #  2     ecut=    80.00 Ry     beta= 0.40
     Davidson diagonalization with overlap
     ethr =  6.14E-06,  avg # of iterations =  5.0

     negative rho (up, down):  9.684E-07 0.000E+00

     total cpu time spent up to now is      548.5 secs

     total energy              =     -77.18145699 Ry
     Harris-Foulkes estimate   =     -77.18471114 Ry
     estimated scf accuracy    <       0.01711929 Ry

     iteration #  3     ecut=    80.00 Ry     beta= 0.40
     Davidson diagonalization with overlap
     ethr =  6.14E-06,  avg # of iterations =  4.0

     negative rho (up, down):  7.965E-07 0.000E+00

     total cpu time spent up to now is      554.5 secs

     total energy              =     -77.18276821 Ry
     Harris-Foulkes estimate   =     -77.18296904 Ry
     estimated scf accuracy    <       0.00104802 Ry

     iteration #  4     ecut=    80.00 Ry     beta= 0.40
     Davidson diagonalization with overlap
     ethr =  2.05E-06,  avg # of iterations =  5.0

     negative rho (up, down):  6.220E-07 0.000E+00

     total cpu time spent up to now is      559.7 secs

     total energy              =     -77.18281965 Ry
     Harris-Foulkes estimate   =     -77.18290467 Ry
     estimated scf accuracy    <       0.00052863 Ry

     iteration #  5     ecut=    80.00 Ry     beta= 0.40
     Davidson diagonalization with overlap
     ethr =  1.04E-06,  avg # of iterations =  4.0

     negative rho (up, down):  8.416E-08 0.000E+00

     total cpu time spent up to now is      564.6 secs

     total energy              =     -77.18280770 Ry
     Harris-Foulkes estimate   =     -77.18286196 Ry
     estimated scf accuracy    <       0.00019376 Ry

     iteration #  6     ecut=    80.00 Ry     beta= 0.40
     Davidson diagonalization with overlap
     ethr =  3.80E-07,  avg # of iterations =  4.0

     negative rho (up, down):  4.740E-08 0.000E+00

     total cpu time spent up to now is      570.6 secs

     total energy              =     -77.18284589 Ry
     Harris-Foulkes estimate   =     -77.18286400 Ry
     estimated scf accuracy    <       0.00009933 Ry

     iteration #  7     ecut=    80.00 Ry     beta= 0.40
     Davidson diagonalization with overlap
     ethr =  1.95E-07,  avg # of iterations =  3.0

     negative rho (up, down):  3.895E-08 0.000E+00

     total cpu time spent up to now is      575.4 secs

     total energy              =     -77.18284980 Ry
     Harris-Foulkes estimate   =     -77.18285898 Ry
     estimated scf accuracy    <       0.00005569 Ry

     iteration #  8     ecut=    80.00 Ry     beta= 0.40
     Davidson diagonalization with overlap
     ethr =  1.09E-07,  avg # of iterations =  1.0

     negative rho (up, down):  2.769E-08 0.000E+00

     total cpu time spent up to now is      580.1 secs

     total energy              =     -77.18284982 Ry
     Harris-Foulkes estimate   =     -77.18285336 Ry
     estimated scf accuracy    <       0.00001901 Ry

     iteration #  9     ecut=    80.00 Ry     beta= 0.40
     Davidson diagonalization with overlap
     ethr =  3.73E-08,  avg # of iterations =  2.0

     total cpu time spent up to now is      584.9 secs

     total energy              =     -77.18284880 Ry
     Harris-Foulkes estimate   =     -77.18285160 Ry
     estimated scf accuracy    <       0.00000956 Ry

     iteration # 10     ecut=    80.00 Ry     beta= 0.40
     Davidson diagonalization with overlap
     ethr =  1.87E-08,  avg # of iterations =  4.0

     total cpu time spent up to now is      591.0 secs

     total energy              =     -77.18285105 Ry
     Harris-Foulkes estimate   =     -77.18285147 Ry
     estimated scf accuracy    <       0.00000296 Ry

     iteration # 11     ecut=    80.00 Ry     beta= 0.40
     Davidson diagonalization with overlap
     ethr =  5.80E-09,  avg # of iterations =  3.0

     total cpu time spent up to now is      595.8 secs

     total energy              =     -77.18285084 Ry
     Harris-Foulkes estimate   =     -77.18285120 Ry
     estimated scf accuracy    <       0.00000120 Ry

     iteration # 12     ecut=    80.00 Ry     beta= 0.40
     Davidson diagonalization with overlap
     ethr =  2.34E-09,  avg # of iterations =  5.0

     total cpu time spent up to now is      601.8 secs

     total energy              =     -77.18285109 Ry
     Harris-Foulkes estimate   =     -77.18285120 Ry
     estimated scf accuracy    <       0.00000107 Ry

     iteration # 13     ecut=    80.00 Ry     beta= 0.40
     Davidson diagonalization with overlap
     ethr =  2.09E-09,  avg # of iterations =  1.0

     total cpu time spent up to now is      606.3 secs

     End of self-consistent calculation

          k = 0.0000 0.0000 0.0000 (252395 PWs)   bands (ev):

    -9.9936  -9.1208  -9.1166  -9.1165  -9.0060  -9.0059  -8.3836  -7.5058
    -7.4438  -7.4438  -6.8236  -5.8531  -5.8031  -5.8030  -5.6443  -5.6443
    -4.8053  -4.8053  -3.9955  -3.8667  -3.2904  -3.2349  -3.2349  -3.1780
    -3.1161  -3.1161  -3.1129  -3.0595  -3.0595  -2.6763  -2.6761

     the Fermi energy is    -3.0849 ev

!    total energy              =     -77.18285110 Ry
     Harris-Foulkes estimate   =     -77.18285117 Ry
     estimated scf accuracy    <       0.00000010 Ry

     The total energy is the sum of the following terms:

     one-electron contribution =    -269.78980287 Ry
     hartree contribution      =     139.54683915 Ry
     xc contribution           =     -33.45877194 Ry
     ewald contribution        =      86.62981003 Ry
     smearing contrib. (-TS)   =      -0.11092546 Ry

     convergence has been achieved in  13 iterations

     Forces acting on atoms (cartesian axes, Ry/au):

     atom    1 type  1   force =     0.00351752    0.01186201    0.00000000
     atom    2 type  1   force =     0.00000732    0.00365545    0.00000000
     atom    3 type  1   force =    -0.00353410    0.01186165    0.00000000
     atom    4 type  1   force =     0.00516703    0.00297091    0.00000000
     atom    5 type  1   force =     0.01203907   -0.00287622    0.00000000
     atom    6 type  1   force =     0.01492418    0.00860017    0.00000000
     atom    7 type  1   force =    -0.01490978    0.00861013    0.00000000
     atom    8 type  1   force =    -0.00001427    0.00002366    0.00000000
     atom    9 type  1   force =     0.00319145   -0.00183930    0.00000000
     atom   10 type  1   force =     0.00849639   -0.00896994    0.00000000
     atom   11 type  1   force =     0.00000630   -0.01721428    0.00000000
     atom   12 type  1   force =    -0.00000447   -0.00001081    0.00000000
     atom   13 type  1   force =    -0.00515558    0.00296885    0.00000000
     atom   14 type  1   force =    -0.01205761   -0.00287129    0.00000000
     atom   15 type  1   force =     0.00000995   -0.00596622    0.00000000
     atom   16 type  1   force =    -0.00851079   -0.00896754    0.00000000
     atom   17 type  1   force =    -0.00317259   -0.00183721    0.00000000

     Total force =     0.044215     Total SCF correction =     0.000258


     Computing stress (Cartesian axis) and pressure

          total   stress  (Ry/bohr**3)                   (kbar)     P=   -1.55
  -0.00001581  -0.00000001   0.00000000         -2.33     -0.00      0.00
  -0.00000001  -0.00001583   0.00000000         -0.00     -2.33      0.00
   0.00000000   0.00000000   0.00000000          0.00      0.00      0.00


     number of scf cycles    =   6
     number of bfgs steps    =   5

     enthalpy old            =     -77.1758656520 Ry
     enthalpy new            =     -77.1828510985 Ry

     CASE: enthalpy_new < enthalpy_old

     new trust radius        =       0.1685616126 bohr
     new conv_thr            =       0.0000010000 Ry

     new unit-cell volume =  20670.12768 a.u.^3 (  3062.99687 Ang^3 )
     density =      0.27632 g/cm^3

CELL_PARAMETERS (alat= 25.26072511)
   0.994822087   0.000002997   0.000000000
  -0.497408448   0.861542081   0.000000000
   0.000000000   0.000000000   1.496177267

ATOMIC_POSITIONS (angstrom)
Al      -0.035547783   2.568210757   0.000000000
Al       2.216352594   1.281569118   0.000000000
Al       4.468423475   2.568153001   0.000000000
Al       6.586477034   1.243548903   0.000000000
Al      -2.226383579   6.362877084   0.000000000
Al       0.210960144   5.240320132   0.000000000
Al       4.221792971   5.240295224   0.000000000
Al      -4.432575215  10.236979794   0.000000000
Al      -2.214727245   8.956519607   0.000000000
Al       0.025536016  10.263419533   0.000000000
Al       2.216372657   8.713901268   0.000000000
Al       8.865497272   2.559353538   0.000000000
Al      11.144506202   1.243573675   0.000000000
Al       6.659342081   6.362897327   0.000000000
Al       8.865514487   5.190935950   0.000000000
Al       4.407334734  10.263441422   0.000000000
Al       6.647562648   8.956587684   0.000000000



     Writing output data file 7al_planar_2x2_vcr.save/
     NEW-OLD atomic charge density approx. for the potential

     negative rho (up, down):  3.528E-06 0.000E+00
     extrapolated charge   50.79008, renormalised to   51.00000

     total cpu time spent up to now is      646.8 secs

     Self-consistent Calculation

     iteration #  1     ecut=    80.00 Ry     beta= 0.40
     Davidson diagonalization with overlap
     ethr =  1.00E-06,  avg # of iterations =  9.0

     negative rho (up, down):  1.947E-06 0.000E+00

     total cpu time spent up to now is      658.2 secs

     total energy              =     -77.18572937 Ry
     Harris-Foulkes estimate   =     -78.20839943 Ry
     estimated scf accuracy    <       0.00897000 Ry

     iteration #  2     ecut=    80.00 Ry     beta= 0.40
     Davidson diagonalization with overlap
     ethr =  1.76E-05,  avg # of iterations = 11.0

     negative rho (up, down):  1.668E-06 0.000E+00

     total cpu time spent up to now is      665.3 secs

     total energy              =     -77.18618889 Ry
     Harris-Foulkes estimate   =     -77.19676865 Ry
     estimated scf accuracy    <       0.05907810 Ry

     iteration #  3     ecut=    80.00 Ry     beta= 0.40
     Davidson diagonalization with overlap
     ethr =  1.76E-05,  avg # of iterations =  4.0

     negative rho (up, down):  1.352E-06 0.000E+00

     total cpu time spent up to now is      671.3 secs

     total energy              =     -77.19038234 Ry
     Harris-Foulkes estimate   =     -77.19067539 Ry
     estimated scf accuracy    <       0.00244262 Ry

     iteration #  4     ecut=    80.00 Ry     beta= 0.40
     Davidson diagonalization with overlap
     ethr =  4.79E-06,  avg # of iterations =  3.0

     negative rho (up, down):  9.150E-07 0.000E+00

     total cpu time spent up to now is      676.2 secs

     total energy              =     -77.19025884 Ry
     Harris-Foulkes estimate   =     -77.19049627 Ry
     estimated scf accuracy    <       0.00148216 Ry

     iteration #  5     ecut=    80.00 Ry     beta= 0.40
     Davidson diagonalization with overlap
     ethr =  2.91E-06,  avg # of iterations =  1.0

     negative rho (up, down):  8.306E-08 0.000E+00

     total cpu time spent up to now is      680.9 secs

     total energy              =     -77.19006851 Ry
     Harris-Foulkes estimate   =     -77.19038959 Ry
     estimated scf accuracy    <       0.00117219 Ry

     iteration #  6     ecut=    80.00 Ry     beta= 0.40
     Davidson diagonalization with overlap
     ethr =  2.30E-06,  avg # of iterations =  3.0

     negative rho (up, down):  5.544E-08 0.000E+00

     total cpu time spent up to now is      686.1 secs

     total energy              =     -77.19026771 Ry
     Harris-Foulkes estimate   =     -77.19030955 Ry
     estimated scf accuracy    <       0.00024621 Ry

     iteration #  7     ecut=    80.00 Ry     beta= 0.40
     Davidson diagonalization with overlap
     ethr =  4.83E-07,  avg # of iterations =  4.0

     negative rho (up, down):  4.253E-08 0.000E+00

     total cpu time spent up to now is      691.9 secs

     total energy              =     -77.19029157 Ry
     Harris-Foulkes estimate   =     -77.19032173 Ry
     estimated scf accuracy    <       0.00019663 Ry

     iteration #  8     ecut=    80.00 Ry     beta= 0.40
     Davidson diagonalization with overlap
     ethr =  3.86E-07,  avg # of iterations =  1.0

     negative rho (up, down):  3.022E-08 0.000E+00

     total cpu time spent up to now is      696.6 secs

     total energy              =     -77.19028307 Ry
     Harris-Foulkes estimate   =     -77.19029837 Ry
     estimated scf accuracy    <       0.00009419 Ry

     iteration #  9     ecut=    80.00 Ry     beta= 0.40
     Davidson diagonalization with overlap
     ethr =  1.85E-07,  avg # of iterations =  1.0

     negative rho (up, down):  1.137E-08 0.000E+00

     total cpu time spent up to now is      701.3 secs

     total energy              =     -77.19027355 Ry
     Harris-Foulkes estimate   =     -77.19028796 Ry
     estimated scf accuracy    <       0.00004456 Ry

     iteration # 10     ecut=    80.00 Ry     beta= 0.40
     Davidson diagonalization with overlap
     ethr =  8.74E-08,  avg # of iterations =  4.0

     negative rho (up, down):  1.468E-08 0.000E+00

     total cpu time spent up to now is      707.5 secs

     total energy              =     -77.19028593 Ry
     Harris-Foulkes estimate   =     -77.19028742 Ry
     estimated scf accuracy    <       0.00001549 Ry

     iteration # 11     ecut=    80.00 Ry     beta= 0.40
     Davidson diagonalization with overlap
     ethr =  3.04E-08,  avg # of iterations =  1.0

     total cpu time spent up to now is      712.1 secs

     total energy              =     -77.19028227 Ry
     Harris-Foulkes estimate   =     -77.19028628 Ry
     estimated scf accuracy    <       0.00001116 Ry

     iteration # 12     ecut=    80.00 Ry     beta= 0.40
     Davidson diagonalization with overlap
     c_bands:  1 eigenvalues not converged
     ethr =  2.19E-08,  avg # of iterations = 20.0

     total cpu time spent up to now is      719.6 secs

     total energy              =     -77.19088481 Ry
     Harris-Foulkes estimate   =     -77.19088618 Ry
     estimated scf accuracy    <       0.00043038 Ry

     iteration # 13     ecut=    80.00 Ry     beta= 0.40
     Davidson diagonalization with overlap
     ethr =  2.19E-08,  avg # of iterations =  1.0

     total cpu time spent up to now is      724.2 secs

     total energy              =     -77.19088750 Ry
     Harris-Foulkes estimate   =     -77.19088491 Ry
     estimated scf accuracy    <       0.00042351 Ry

     iteration # 14     ecut=    80.00 Ry     beta= 0.40
     Davidson diagonalization with overlap
     ethr =  2.19E-08,  avg # of iterations =  1.0

     total cpu time spent up to now is      729.0 secs

     total energy              =     -77.19088863 Ry
     Harris-Foulkes estimate   =     -77.19088762 Ry
     estimated scf accuracy    <       0.00042899 Ry

     iteration # 15     ecut=    80.00 Ry     beta= 0.40
     Davidson diagonalization with overlap
     ethr =  2.19E-08,  avg # of iterations =  1.0

     total cpu time spent up to now is      733.7 secs

     total energy              =     -77.19089410 Ry
     Harris-Foulkes estimate   =     -77.19088865 Ry
     estimated scf accuracy    <       0.00043364 Ry

     iteration # 16     ecut=    80.00 Ry     beta= 0.40
     Davidson diagonalization with overlap
     ethr =  2.19E-08,  avg # of iterations =  1.0

     total cpu time spent up to now is      738.4 secs

     total energy              =     -77.19089756 Ry
     Harris-Foulkes estimate   =     -77.19089429 Ry
     estimated scf accuracy    <       0.00046487 Ry

     iteration # 17     ecut=    80.00 Ry     beta= 0.40
     Davidson diagonalization with overlap
     ethr =  2.19E-08,  avg # of iterations =  1.0

     total cpu time spent up to now is      743.1 secs

     total energy              =     -77.19090397 Ry
     Harris-Foulkes estimate   =     -77.19089764 Ry
     estimated scf accuracy    <       0.00047707 Ry

     iteration # 18     ecut=    80.00 Ry     beta= 0.40
     Davidson diagonalization with overlap
     ethr =  2.19E-08,  avg # of iterations =  1.0

     total cpu time spent up to now is      747.9 secs

     total energy              =     -77.19091185 Ry
     Harris-Foulkes estimate   =     -77.19090414 Ry
     estimated scf accuracy    <       0.00051204 Ry

     iteration # 19     ecut=    80.00 Ry     beta= 0.40
     Davidson diagonalization with overlap
     ethr =  2.19E-08,  avg # of iterations =  1.0

     total cpu time spent up to now is      752.7 secs

     total energy              =     -77.19091844 Ry
     Harris-Foulkes estimate   =     -77.19091206 Ry
     estimated scf accuracy    <       0.00055135 Ry

     iteration # 20     ecut=    80.00 Ry     beta= 0.40
     Davidson diagonalization with overlap
     ethr =  2.19E-08,  avg # of iterations =  1.0

     negative rho (up, down):  6.751E-08 0.000E+00

     total cpu time spent up to now is      757.5 secs

     total energy              =     -77.19073168 Ry
     Harris-Foulkes estimate   =     -77.19091862 Ry
     estimated scf accuracy    <       0.00058351 Ry

     iteration # 21     ecut=    80.00 Ry     beta= 0.40
     Davidson diagonalization with overlap
     ethr =  2.19E-08,  avg # of iterations =  9.0

     negative rho (up, down):  5.788E-08 0.000E+00

     total cpu time spent up to now is      766.8 secs

     total energy              =     -77.19079743 Ry
     Harris-Foulkes estimate   =     -77.19080848 Ry
     estimated scf accuracy    <       0.00003714 Ry

     iteration # 22     ecut=    80.00 Ry     beta= 0.40
     Davidson diagonalization with overlap
     ethr =  2.19E-08,  avg # of iterations =  4.0

     negative rho (up, down):  1.140E-08 0.000E+00

     total cpu time spent up to now is      773.3 secs

     total energy              =     -77.19080204 Ry
     Harris-Foulkes estimate   =     -77.19080466 Ry
     estimated scf accuracy    <       0.00000971 Ry

     iteration # 23     ecut=    80.00 Ry     beta= 0.40
     Davidson diagonalization with overlap
     ethr =  1.90E-08,  avg # of iterations =  5.0

     total cpu time spent up to now is      779.3 secs

     total energy              =     -77.19080341 Ry
     Harris-Foulkes estimate   =     -77.19080513 Ry
     estimated scf accuracy    <       0.00000905 Ry

     iteration # 24     ecut=    80.00 Ry     beta= 0.40
     Davidson diagonalization with overlap
     ethr =  1.77E-08,  avg # of iterations =  1.0

     total cpu time spent up to now is      783.9 secs

     total energy              =     -77.19080406 Ry
     Harris-Foulkes estimate   =     -77.19080428 Ry
     estimated scf accuracy    <       0.00000125 Ry

     iteration # 25     ecut=    80.00 Ry     beta= 0.40
     Davidson diagonalization with overlap
     ethr =  2.46E-09,  avg # of iterations =  5.0

     total cpu time spent up to now is      789.7 secs

     End of self-consistent calculation

          k = 0.0000 0.0000 0.0000 (252395 PWs)   bands (ev):

    -9.9940  -9.1255  -9.1253  -9.1014  -8.9846  -8.9843  -8.4027  -7.4897
    -7.4328  -7.4327  -6.8935  -5.8300  -5.7777  -5.7777  -5.6604  -5.6602
    -4.8357  -4.8356  -4.1071  -3.9931  -3.3113  -3.2021  -3.2020  -3.1161
    -3.1160  -3.1044  -3.0914  -3.0424  -3.0422  -2.6453  -2.6451

     the Fermi energy is    -3.0630 ev

!    total energy              =     -77.19080394 Ry
     Harris-Foulkes estimate   =     -77.19080436 Ry
     estimated scf accuracy    <       0.00000055 Ry

     The total energy is the sum of the following terms:

     one-electron contribution =    -270.30374436 Ry
     hartree contribution      =     139.77468302 Ry
     xc contribution           =     -33.43116127 Ry
     ewald contribution        =      86.88050720 Ry
     smearing contrib. (-TS)   =      -0.11108854 Ry

     convergence has been achieved in  25 iterations

     Forces acting on atoms (cartesian axes, Ry/au):

     atom    1 type  1   force =     0.00874752    0.01780211    0.00000000
     atom    2 type  1   force =     0.00002468    0.00554932    0.00000000
     atom    3 type  1   force =    -0.00879344    0.01780893    0.00000000
     atom    4 type  1   force =     0.01118972    0.00644893    0.00000000
     atom    5 type  1   force =     0.01980152   -0.00132244    0.00000000
     atom    6 type  1   force =     0.00916335    0.00527186    0.00000000
     atom    7 type  1   force =    -0.00914275    0.00527441    0.00000000
     atom    8 type  1   force =    -0.00001985    0.00002866    0.00000000
     atom    9 type  1   force =     0.00481186   -0.00278036    0.00000000
     atom   10 type  1   force =     0.01105782   -0.01647003    0.00000000
     atom   11 type  1   force =     0.00001653   -0.01055523    0.00000000
     atom   12 type  1   force =     0.00000306   -0.00001451    0.00000000
     atom   13 type  1   force =    -0.01117218    0.00645148    0.00000000
     atom   14 type  1   force =    -0.01984496   -0.00130596    0.00000000
     atom   15 type  1   force =     0.00001578   -0.01292565    0.00000000
     atom   16 type  1   force =    -0.01106577   -0.01647471    0.00000000
     atom   17 type  1   force =    -0.00479289   -0.00278680    0.00000000

     Total force =     0.057376     Total SCF correction =     0.000583


     Computing stress (Cartesian axis) and pressure

          total   stress  (Ry/bohr**3)                   (kbar)     P=   -1.91
  -0.00001949  -0.00000002   0.00000000         -2.87     -0.00      0.00
  -0.00000002  -0.00001952   0.00000000         -0.00     -2.87      0.00
   0.00000000   0.00000000  -0.00000000          0.00      0.00     -0.00


     number of scf cycles    =   7
     number of bfgs steps    =   6

     enthalpy old            =     -77.1828510985 Ry
     enthalpy new            =     -77.1908039438 Ry

     CASE: enthalpy_new < enthalpy_old

     new trust radius        =       0.2523230215 bohr
     new conv_thr            =       0.0000010000 Ry

     new unit-cell volume =  20528.27779 a.u.^3 (  3041.97688 Ang^3 )
     density =      0.27823 g/cm^3

CELL_PARAMETERS (alat= 25.26072511)
   0.991402468   0.000003855   0.000000000
  -0.495697896   0.858580568   0.000000000
   0.000000000   0.000000000   1.496177267

ATOMIC_POSITIONS (angstrom)
Al      -0.046884042   2.576540841   0.000000000
Al       2.208747612   1.282052859   0.000000000
Al       4.464554567   2.576463260   0.000000000
Al       6.538468530   1.224670448   0.000000000
Al      -2.209578799   6.322480518   0.000000000
Al       0.325481837   5.288833574   0.000000000
Al       4.092037709   5.288769426   0.000000000
Al      -4.417280553  10.201779125   0.000000000
Al      -2.202934357   8.923347068   0.000000000
Al       0.046064167  10.229508535   0.000000000
Al       2.208736674   8.550924441   0.000000000
Al       8.835027161   2.550554615   0.000000000
Al      11.131529653   1.224686911   0.000000000
Al       6.627334026   6.322496128   0.000000000
Al       8.835021187   5.202353556   0.000000000
Al       4.371591215  10.229518099   0.000000000
Al       6.620520693   8.923402465   0.000000000



     Writing output data file 7al_planar_2x2_vcr.save/
     NEW-OLD atomic charge density approx. for the potential

     negative rho (up, down):  7.390E-06 0.000E+00
     extrapolated charge   50.64788, renormalised to   51.00000

     total cpu time spent up to now is      829.9 secs

     Self-consistent Calculation

     iteration #  1     ecut=    80.00 Ry     beta= 0.40
     Davidson diagonalization with overlap
     ethr =  1.00E-06,  avg # of iterations = 10.0

     negative rho (up, down):  4.196E-06 0.000E+00

     total cpu time spent up to now is      842.4 secs

     total energy              =     -77.18645561 Ry
     Harris-Foulkes estimate   =     -78.91082464 Ry
     estimated scf accuracy    <       0.01936120 Ry

     iteration #  2     ecut=    80.00 Ry     beta= 0.40
     Davidson diagonalization with overlap
     ethr =  3.80E-05,  avg # of iterations =  8.0

     negative rho (up, down):  3.619E-06 0.000E+00

     total cpu time spent up to now is      849.9 secs

     total energy              =     -77.18852469 Ry
     Harris-Foulkes estimate   =     -77.21635683 Ry
     estimated scf accuracy    <       0.17120700 Ry

     iteration #  3     ecut=    80.00 Ry     beta= 0.40
     Davidson diagonalization with overlap
     ethr =  3.80E-05,  avg # of iterations =  4.0

     negative rho (up, down):  2.998E-06 0.000E+00

     total cpu time spent up to now is      856.1 secs

     total energy              =     -77.19955816 Ry
     Harris-Foulkes estimate   =     -77.20019798 Ry
     estimated scf accuracy    <       0.00687433 Ry

     iteration #  4     ecut=    80.00 Ry     beta= 0.40
     Davidson diagonalization with overlap
     ethr =  1.35E-05,  avg # of iterations =  2.0

     negative rho (up, down):  2.043E-06 0.000E+00

     total cpu time spent up to now is      861.1 secs

     total energy              =     -77.19911194 Ry
     Harris-Foulkes estimate   =     -77.19976646 Ry
     estimated scf accuracy    <       0.00459942 Ry

     iteration #  5     ecut=    80.00 Ry     beta= 0.40
     Davidson diagonalization with overlap
     ethr =  9.02E-06,  avg # of iterations =  1.0

     negative rho (up, down):  2.552E-07 0.000E+00

     total cpu time spent up to now is      865.9 secs

     total energy              =     -77.19847939 Ry
     Harris-Foulkes estimate   =     -77.19940331 Ry
     estimated scf accuracy    <       0.00328712 Ry

     iteration #  6     ecut=    80.00 Ry     beta= 0.40
     Davidson diagonalization with overlap
     ethr =  6.45E-06,  avg # of iterations =  4.0

     negative rho (up, down):  1.808E-07 0.000E+00

     total cpu time spent up to now is      871.6 secs

     total energy              =     -77.19906372 Ry
     Harris-Foulkes estimate   =     -77.19913743 Ry
     estimated scf accuracy    <       0.00050551 Ry

     iteration #  7     ecut=    80.00 Ry     beta= 0.40
     Davidson diagonalization with overlap
     ethr =  9.91E-07,  avg # of iterations =  3.0

     negative rho (up, down):  1.346E-07 0.000E+00

     total cpu time spent up to now is      877.6 secs

     total energy              =     -77.19908834 Ry
     Harris-Foulkes estimate   =     -77.19917603 Ry
     estimated scf accuracy    <       0.00050321 Ry

     iteration #  8     ecut=    80.00 Ry     beta= 0.40
     Davidson diagonalization with overlap
     ethr =  9.87E-07,  avg # of iterations =  1.0

     negative rho (up, down):  8.083E-08 0.000E+00

     total cpu time spent up to now is      882.4 secs

     total energy              =     -77.19907879 Ry
     Harris-Foulkes estimate   =     -77.19910889 Ry
     estimated scf accuracy    <       0.00017999 Ry

     iteration #  9     ecut=    80.00 Ry     beta= 0.40
     Davidson diagonalization with overlap
     ethr =  3.53E-07,  avg # of iterations =  3.0

     negative rho (up, down):  3.790E-08 0.000E+00

     total cpu time spent up to now is      887.6 secs

     total energy              =     -77.19908115 Ry
     Harris-Foulkes estimate   =     -77.19909263 Ry
     estimated scf accuracy    <       0.00006148 Ry

     iteration # 10     ecut=    80.00 Ry     beta= 0.40
     Davidson diagonalization with overlap
     ethr =  1.21E-07,  avg # of iterations =  4.0

     negative rho (up, down):  4.338E-08 0.000E+00

     total cpu time spent up to now is      893.7 secs

     total energy              =     -77.19909050 Ry
     Harris-Foulkes estimate   =     -77.19909249 Ry
     estimated scf accuracy    <       0.00000629 Ry

     iteration # 11     ecut=    80.00 Ry     beta= 0.40
     Davidson diagonalization with overlap
     ethr =  1.23E-08,  avg # of iterations =  5.0

     negative rho (up, down):  2.655E-08 0.000E+00

     total cpu time spent up to now is      900.1 secs

     total energy              =     -77.19909135 Ry
     Harris-Foulkes estimate   =     -77.19909256 Ry
     estimated scf accuracy    <       0.00000502 Ry

     iteration # 12     ecut=    80.00 Ry     beta= 0.40
     Davidson diagonalization with overlap
     ethr =  9.84E-09,  avg # of iterations =  3.0

     total cpu time spent up to now is      905.9 secs

     total energy              =     -77.19909208 Ry
     Harris-Foulkes estimate   =     -77.19909236 Ry
     estimated scf accuracy    <       0.00000215 Ry

     iteration # 13     ecut=    80.00 Ry     beta= 0.40
     Davidson diagonalization with overlap
     ethr =  4.21E-09,  avg # of iterations =  2.0

     total cpu time spent up to now is      910.8 secs

     End of self-consistent calculation

          k = 0.0000 0.0000 0.0000 (252395 PWs)   bands (ev):

   -10.0309  -9.1750  -9.1706  -9.1068  -8.9876  -8.9861  -8.4882  -7.5048
    -7.4383  -7.4355  -7.0308  -5.8335  -5.8017  -5.8009  -5.6938  -5.6881
    -4.9031  -4.9012  -4.4665  -4.0161  -3.3585  -3.1877  -3.1856  -3.1424
    -3.1399  -3.0846  -3.0376  -3.0373  -3.0238  -2.6941  -2.6414

     the Fermi energy is    -3.0596 ev

!    total energy              =     -77.19909224 Ry
     Harris-Foulkes estimate   =     -77.19909234 Ry
     estimated scf accuracy    <       0.00000015 Ry

     The total energy is the sum of the following terms:

     one-electron contribution =    -271.23910305 Ry
     hartree contribution      =     140.13854702 Ry
     xc contribution           =     -33.38066406 Ry
     ewald contribution        =      87.39710039 Ry
     smearing contrib. (-TS)   =      -0.11497254 Ry

     convergence has been achieved in  13 iterations

     Forces acting on atoms (cartesian axes, Ry/au):

     atom    1 type  1   force =     0.01511119    0.02491380    0.00000000
     atom    2 type  1   force =    -0.00039098    0.00791072    0.00000000
     atom    3 type  1   force =    -0.01456414    0.02506983    0.00000000
     atom    4 type  1   force =     0.01761698    0.01052902    0.00000000
     atom    5 type  1   force =     0.02899930   -0.00041660    0.00000000
     atom    6 type  1   force =     0.00289943    0.00215483    0.00000000
     atom    7 type  1   force =    -0.00284025    0.00197709    0.00000000
     atom    8 type  1   force =     0.00062595   -0.00185329    0.00000000
     atom    9 type  1   force =     0.00567700   -0.00240583    0.00000000
     atom   10 type  1   force =     0.01403652   -0.02577782    0.00000000
     atom   11 type  1   force =    -0.00012446   -0.00387850    0.00000000
     atom   12 type  1   force =     0.00031284   -0.00089320    0.00000000
     atom   13 type  1   force =    -0.01822849    0.01079061    0.00000000
     atom   14 type  1   force =    -0.02891955   -0.00062391    0.00000000
     atom   15 type  1   force =    -0.00007440   -0.01914523    0.00000000
     atom   16 type  1   force =    -0.01376166   -0.02599016    0.00000000
     atom   17 type  1   force =    -0.00637528   -0.00236137    0.00000000

     Total force =     0.080760     Total SCF correction =     0.000267


     Computing stress (Cartesian axis) and pressure

          total   stress  (Ry/bohr**3)                   (kbar)     P=   -2.52
  -0.00002465  -0.00000040   0.00000000         -3.63     -0.06      0.00
  -0.00000040  -0.00002679   0.00000000         -0.06     -3.94      0.00
   0.00000000   0.00000000  -0.00000000          0.00      0.00     -0.00


     number of scf cycles    =   8
     number of bfgs steps    =   7

     enthalpy old            =     -77.1908039438 Ry
     enthalpy new            =     -77.1990922420 Ry

     CASE: enthalpy_new < enthalpy_old

     new trust radius        =       0.3771838532 bohr
     new conv_thr            =       0.0000010000 Ry

     new unit-cell volume =  20292.14720 a.u.^3 (  3006.98594 Ang^3 )
     density =      0.28147 g/cm^3

CELL_PARAMETERS (alat= 25.26072511)
   0.985738260  -0.000014498   0.000000000
  -0.492881686   0.853590531   0.000000000
   0.000000000   0.000000000   1.496177267

ATOMIC_POSITIONS (angstrom)
Al      -0.056748022   2.596140062   0.000000000
Al       2.195682833   1.284760085   0.000000000
Al       4.449767317   2.596109660   0.000000000
Al       6.468460588   1.199046042   0.000000000
Al      -2.172263671   6.258504056   0.000000000
Al       0.494936225   5.357502900   0.000000000
Al       3.897191739   5.357110132   0.000000000
Al      -4.391451651  10.140404547   0.000000000
Al      -2.183046281   8.868103607   0.000000000
Al       0.080668947  10.161144221   0.000000000
Al       2.195777231   8.302659857   0.000000000
Al       8.784845551   2.534570956   0.000000000
Al      11.099785312   1.199231649   0.000000000
Al       6.564707040   6.258093942   0.000000000
Al       8.784302070   5.210787894   0.000000000
Al       4.311685678  10.160820609   0.000000000
Al       6.574236805   8.868009392   0.000000000



     Writing output data file 7al_planar_2x2_vcr.save/
     NEW-OLD atomic charge density approx. for the potential

     negative rho (up, down):  1.688E-05 0.000E+00
     extrapolated charge   50.40702, renormalised to   51.00000

[...]
    -8.3702  -6.2255  -6.1817  -6.0106  -5.8830  -5.2045  -5.0575  -4.9612
    -4.8409  -4.7431  -4.6261  -4.3619  -4.1934  -4.1545  -3.4194  -3.4117
    -3.3406  -3.2479  -2.1193  -2.1016  -2.0942  -1.9541  -1.2655

     the Fermi energy is    -2.9709 ev

!    total energy              =     -78.05943791 Ry
     Harris-Foulkes estimate   =     -78.05943791 Ry
     estimated scf accuracy    <          2.3E-09 Ry

     The total energy is the sum of the following terms:

     one-electron contribution =    -366.23120135 Ry
     hartree contribution      =     188.17111369 Ry
     xc contribution           =     -34.77970002 Ry
     ewald contribution        =     134.76215300 Ry
     smearing contrib. (-TS)   =       0.01819678 Ry

     convergence has been achieved in   3 iterations

     Forces acting on atoms (cartesian axes, Ry/au):

     atom    1 type  1   force =     0.00000207   -0.00000230    0.00000000
     atom    2 type  1   force =     0.00000102    0.00000153    0.00000000
     atom    3 type  1   force =    -0.00000034    0.00000019    0.00000000
     atom    4 type  1   force =    -0.00000002   -0.00000047    0.00000000
     atom    5 type  1   force =     0.00000019   -0.00000244    0.00000000
     atom    6 type  1   force =     0.00000231    0.00000152    0.00000000
     atom    7 type  1   force =    -0.00000021   -0.00000324    0.00000000
     atom    8 type  1   force =     0.00000054    0.00000011    0.00000000
     atom    9 type  1   force =    -0.00000225    0.00000290    0.00000000
     atom   10 type  1   force =    -0.00000104   -0.00000009    0.00000000
     atom   11 type  1   force =    -0.00000212    0.00000017    0.00000000
     atom   12 type  1   force =    -0.00000169   -0.00000165    0.00000000
     atom   13 type  1   force =    -0.00000246    0.00000116    0.00000000
     atom   14 type  1   force =     0.00000235    0.00000089    0.00000000
     atom   15 type  1   force =     0.00000118    0.00000050    0.00000000
     atom   16 type  1   force =    -0.00000109   -0.00000172    0.00000000
     atom   17 type  1   force =     0.00000156    0.00000292    0.00000000

     Total force =     0.000010     Total SCF correction =     0.000046
     SCF correction compared to forces is large: reduce conv_thr to get better values


     Computing stress (Cartesian axis) and pressure

          total   stress  (Ry/bohr**3)                   (kbar)     P=   -0.00
  -0.00000000  -0.00000000   0.00000000         -0.00     -0.00      0.00
  -0.00000000  -0.00000000   0.00000000         -0.00     -0.00      0.00
   0.00000000   0.00000000  -0.00000001          0.00      0.00     -0.00


     bfgs converged in 219 scf cycles and 214 bfgs steps
     (criteria: energy <  1.0E-05 Ry, force <  1.0E-04Ry/Bohr, cell <  5.0E-05kbar)

     End of BFGS Geometry Optimization

     Final enthalpy =     -78.0594379105 Ry
Begin final coordinates
     new unit-cell volume =  15095.21529 a.u.^3 (  2236.88009 Ang^3 )
     density =      0.37837 g/cm^3

CELL_PARAMETERS (alat= 25.26072511)
   1.113225213   0.006558944   0.000000000
  -0.558955941   0.558964908   0.000000000
   0.000000000   0.000000000   1.496177267

ATOMIC_POSITIONS (angstrom)
Al      -0.874573345   1.143658561   0.000000000
Al       2.175409424   2.300943521   0.000000000
Al       5.103553510   0.668754229   0.000000000
Al       7.357306328   1.537011424   0.000000000
Al      -2.689963581   2.950782758   0.000000000
Al      -0.005753374   3.824683989   0.000000000
Al       4.867353470   3.252891924   0.000000000
Al      -4.621933179   7.272293627   0.000000000
Al      -2.131952602   5.556495596   0.000000000
Al       0.560003483   6.508370593   0.000000000
Al       2.741151752   4.984644314   0.000000000
Al       9.691645147   2.314441363   0.000000000
Al      11.081734913   0.193801012   0.000000000
Al       7.490037955   4.067287179   0.000000000
Al      10.126245925   4.829723088   0.000000000
Al       5.425344180   5.858607278   0.000000000
Al       7.924645415   6.582583867   0.000000000
End final coordinates



     Writing output data file 7al_planar_2x2_vcr.save/

     A final scf calculation at the relaxed structure.
     The G-vectors are recalculated for the final unit cell
     Results may differ from those at the preceding step.
 
     Parallelization info
     --------------------
     sticks:   dense  smooth     PW     G-vecs:    dense   smooth      PW
     Min        1269    1269    318               182381   182381   22802
     Max        1270    1270    319               182386   182386   22805
     Sum       10153   10153   2545              1459059  1459059  182431
 


     bravais-lattice index     =            4
     lattice parameter (alat)  =      25.2607  a.u.
     unit-cell volume          =   15095.2153 (a.u.)^3
     number of atoms/cell      =           17
     number of atomic types    =            1
     number of electrons       =        51.00
     number of Kohn-Sham states=           31
     kinetic-energy cutoff     =      80.0000  Ry
     charge density cutoff     =     320.0000  Ry
     convergence threshold     =      1.0E-08
     mixing beta               =       0.4000
     number of iterations used =            8  plain     mixing
     Exchange-correlation      = PBE ( 1  4  3  4 0 0)

     celldm(1)=  25.260725  celldm(2)=   0.000000  celldm(3)=   1.496177
     celldm(4)=   0.000000  celldm(5)=   0.000000  celldm(6)=   0.000000

     crystal axes: (cart. coord. in units of alat)
               a(1) = (   1.113225   0.006559   0.000000 )  
               a(2) = (  -0.558956   0.558965   0.000000 )  
               a(3) = (   0.000000   0.000000   1.496177 )  

     reciprocal axes: (cart. coord. in units 2 pi/alat)
               b(1) = (  0.893029  0.893015  0.000000 )  
               b(2) = ( -0.010479  1.778542  0.000000 )  
               b(3) = (  0.000000  0.000000  0.668370 )  


     PseudoPot. # 1 for Al read from file:
     ./Al.upf
     MD5 check sum: 4974d48a734c9d7d1eb6780a1419d19d
     Pseudo is Norm-conserving + core correction, Zval =  3.0
     Generated using ONCVPSP code by D. R. Hamann
     Using radial grid of 1876 points,  6 beta functions with: 
                l(1) =   0
                l(2) =   0
                l(3) =   1
                l(4) =   1
                l(5) =   2
                l(6) =   2

     atomic species   valence    mass     pseudopotential
        Al             3.00    29.98200     Al( 1.00)

      2 Sym. Ops. (no inversion) found



   Cartesian axes

     site n.     atom                  positions (alat units)
         1           Al  tau(   1) = (  -0.0654258   0.0855558   0.0000000  )
         2           Al  tau(   2) = (   0.1627399   0.1721310   0.0000000  )
         3           Al  tau(   3) = (   0.3817910   0.0500287   0.0000000  )
         4           Al  tau(   4) = (   0.5503917   0.1149821   0.0000000  )
         5           Al  tau(   5) = (  -0.2012331   0.2207447   0.0000000  )
         6           Al  tau(   6) = (  -0.0004304   0.2861203   0.0000000  )
         7           Al  tau(   7) = (   0.3641212   0.2433451   0.0000000  )
         8           Al  tau(   8) = (  -0.3457616   0.5440320   0.0000000  )
         9           Al  tau(   9) = (  -0.1594890   0.4156751   0.0000000  )
        10           Al  tau(  10) = (   0.0418932   0.4868838   0.0000000  )
        11           Al  tau(  11) = (   0.2050624   0.3728956   0.0000000  )
        12           Al  tau(  12) = (   0.7250210   0.1731407   0.0000000  )
        13           Al  tau(  13) = (   0.8290120   0.0144980   0.0000000  )
        14           Al  tau(  14) = (   0.5603212   0.3042691   0.0000000  )
        15           Al  tau(  15) = (   0.7575329   0.3613061   0.0000000  )
        16           Al  tau(  16) = (   0.4058638   0.4382758   0.0000000  )
        17           Al  tau(  17) = (   0.5928337   0.4924356   0.0000000  )

     number of k points=     1  Methfessel-Paxton smearing, width (Ry)=  0.0500
                       cart. coord. in units 2pi/alat
        k(    1) = (   0.0000000   0.0000000   0.0000000), wk =   2.0000000

     Dense  grid:  1459059 G-vectors     FFT dimensions: ( 162, 120, 216)

     Estimated max dynamical RAM per process >     329.69 MB

     Estimated total dynamical RAM >       2.58 GB

     Initial potential from superposition of free atoms

     starting charge   50.95840, renormalised to   51.00000

     negative rho (up, down):  4.033E-05 0.000E+00
     Starting wfcs are   68 randomized atomic wfcs

     total cpu time spent up to now is    19107.1 secs

     Self-consistent Calculation

     iteration #  1     ecut=    80.00 Ry     beta= 0.40
     Davidson diagonalization with overlap
     ethr =  1.00E-06,  avg # of iterations = 20.0

     negative rho (up, down):  6.162E-06 0.000E+00

     total cpu time spent up to now is    19122.7 secs

     total energy              =     -78.01861254 Ry
     Harris-Foulkes estimate   =     -78.23866772 Ry
     estimated scf accuracy    <       0.55619366 Ry

     iteration #  2     ecut=    80.00 Ry     beta= 0.40
     Davidson diagonalization with overlap
     ethr =  1.09E-03,  avg # of iterations =  2.0

     negative rho (up, down):  4.144E-06 0.000E+00

     total cpu time spent up to now is    19127.7 secs

     total energy              =     -77.97236710 Ry
     Harris-Foulkes estimate   =     -78.15268215 Ry
     estimated scf accuracy    <       0.59752240 Ry

     iteration #  3     ecut=    80.00 Ry     beta= 0.40
     Davidson diagonalization with overlap
     ethr =  1.09E-03,  avg # of iterations =  3.0

     negative rho (up, down):  8.701E-07 0.000E+00

     total cpu time spent up to now is    19132.6 secs

     total energy              =     -78.04311832 Ry
     Harris-Foulkes estimate   =     -78.08791281 Ry
     estimated scf accuracy    <       0.15679158 Ry

     iteration #  4     ecut=    80.00 Ry     beta= 0.40
     Davidson diagonalization with overlap
     ethr =  3.07E-04,  avg # of iterations =  2.0

     negative rho (up, down):  3.452E-07 0.000E+00

     total cpu time spent up to now is    19137.3 secs

     total energy              =     -78.05423241 Ry
     Harris-Foulkes estimate   =     -78.05735542 Ry
     estimated scf accuracy    <       0.01274780 Ry

     iteration #  5     ecut=    80.00 Ry     beta= 0.40
     Davidson diagonalization with overlap
     ethr =  2.50E-05,  avg # of iterations =  4.0

     negative rho (up, down):  2.202E-07 0.000E+00

     total cpu time spent up to now is    19143.2 secs

     total energy              =     -78.05903331 Ry
     Harris-Foulkes estimate   =     -78.06008420 Ry
     estimated scf accuracy    <       0.00588636 Ry

     iteration #  6     ecut=    80.00 Ry     beta= 0.40
     Davidson diagonalization with overlap
     ethr =  1.15E-05,  avg # of iterations =  1.0

     negative rho (up, down):  9.610E-08 0.000E+00

     total cpu time spent up to now is    19147.9 secs

     total energy              =     -78.05886098 Ry
     Harris-Foulkes estimate   =     -78.05957753 Ry
     estimated scf accuracy    <       0.00199311 Ry

     iteration #  7     ecut=    80.00 Ry     beta= 0.40
     Davidson diagonalization with overlap
     ethr =  3.91E-06,  avg # of iterations =  3.0

     negative rho (up, down):  1.260E-08 0.000E+00

     total cpu time spent up to now is    19153.6 secs

     total energy              =     -78.05930131 Ry
     Harris-Foulkes estimate   =     -78.05937916 Ry
     estimated scf accuracy    <       0.00055858 Ry

     iteration #  8     ecut=    80.00 Ry     beta= 0.40
     Davidson diagonalization with overlap
     ethr =  1.10E-06,  avg # of iterations =  1.0

     total cpu time spent up to now is    19158.1 secs

     total energy              =     -78.05929192 Ry
     Harris-Foulkes estimate   =     -78.05933418 Ry
     estimated scf accuracy    <       0.00020537 Ry

     iteration #  9     ecut=    80.00 Ry     beta= 0.40
     Davidson diagonalization with overlap
     ethr =  4.03E-07,  avg # of iterations =  3.0

     total cpu time spent up to now is    19162.9 secs

     total energy              =     -78.05931128 Ry
     Harris-Foulkes estimate   =     -78.05931414 Ry
     estimated scf accuracy    <       0.00001289 Ry

     iteration # 10     ecut=    80.00 Ry     beta= 0.40
     Davidson diagonalization with overlap
     ethr =  2.53E-08,  avg # of iterations =  3.0

     total cpu time spent up to now is    19169.7 secs

     total energy              =     -78.05931554 Ry
     Harris-Foulkes estimate   =     -78.05931651 Ry
     estimated scf accuracy    <       0.00000287 Ry

     iteration # 11     ecut=    80.00 Ry     beta= 0.40
     Davidson diagonalization with overlap
     ethr =  5.62E-09,  avg # of iterations =  2.0

     total cpu time spent up to now is    19175.4 secs

     total energy              =     -78.05931587 Ry
     Harris-Foulkes estimate   =     -78.05931620 Ry
     estimated scf accuracy    <       0.00000068 Ry

     iteration # 12     ecut=    80.00 Ry     beta= 0.40
     Davidson diagonalization with overlap
     ethr =  1.33E-09,  avg # of iterations =  3.0

     total cpu time spent up to now is    19181.5 secs

     total energy              =     -78.05931598 Ry
     Harris-Foulkes estimate   =     -78.05931618 Ry
     estimated scf accuracy    <       0.00000077 Ry

     iteration # 13     ecut=    80.00 Ry     beta= 0.40
     Davidson diagonalization with overlap
     ethr =  1.33E-09,  avg # of iterations =  2.0

     total cpu time spent up to now is    19186.6 secs

     total energy              =     -78.05931601 Ry
     Harris-Foulkes estimate   =     -78.05931604 Ry
     estimated scf accuracy    <       0.00000009 Ry

     iteration # 14     ecut=    80.00 Ry     beta= 0.40
     Davidson diagonalization with overlap
     ethr =  1.77E-10,  avg # of iterations =  3.0

     total cpu time spent up to now is    19192.9 secs

     total energy              =     -78.05931603 Ry
     Harris-Foulkes estimate   =     -78.05931604 Ry
     estimated scf accuracy    <       0.00000006 Ry

     iteration # 15     ecut=    80.00 Ry     beta= 0.40
     Davidson diagonalization with overlap
     ethr =  1.10E-10,  avg # of iterations =  2.0

     total cpu time spent up to now is    19197.8 secs

     total energy              =     -78.05931602 Ry
     Harris-Foulkes estimate   =     -78.05931602 Ry
     estimated scf accuracy    <       0.00000002 Ry

     iteration # 16     ecut=    80.00 Ry     beta= 0.40
     Davidson diagonalization with overlap
     ethr =  4.67E-11,  avg # of iterations =  2.0

     total cpu time spent up to now is    19202.9 secs

     End of self-consistent calculation

          k = 0.0000 0.0000 0.0000 (182431 PWs)   bands (ev):

   -11.2072  -9.9747  -9.9326  -9.8260  -9.7395  -8.5717  -8.5418  -8.5032
    -8.3702  -6.2254  -6.1817  -6.0105  -5.8830  -5.2044  -5.0575  -4.9612
    -4.8408  -4.7430  -4.6261  -4.3620  -4.1934  -4.1545  -3.4194  -3.4117
    -3.3406  -3.2479  -2.1193  -2.1016  -2.0942  -1.9541  -1.2653

     the Fermi energy is    -2.9709 ev

!    total energy              =     -78.05931601 Ry
     Harris-Foulkes estimate   =     -78.05931601 Ry
     estimated scf accuracy    <          1.6E-09 Ry

     The total energy is the sum of the following terms:

     one-electron contribution =    -366.23097627 Ry
     hartree contribution      =     188.17104433 Ry
     xc contribution           =     -34.77973362 Ry
     ewald contribution        =     134.76215300 Ry
     smearing contrib. (-TS)   =       0.01819656 Ry

     convergence has been achieved in  16 iterations

     Forces acting on atoms (cartesian axes, Ry/au):

     atom    1 type  1   force =    -0.00000118   -0.00000398    0.00000000
     atom    2 type  1   force =    -0.00000091    0.00000668    0.00000000
     atom    3 type  1   force =    -0.00000316    0.00000075    0.00000000
     atom    4 type  1   force =     0.00000190   -0.00000287    0.00000000
     atom    5 type  1   force =    -0.00000396   -0.00000440    0.00000000
     atom    6 type  1   force =     0.00000122    0.00000215    0.00000000
     atom    7 type  1   force =    -0.00000025    0.00000078    0.00000000
     atom    8 type  1   force =     0.00000425    0.00000021    0.00000000
     atom    9 type  1   force =    -0.00000125   -0.00000245    0.00000000
     atom   10 type  1   force =     0.00000133   -0.00000079    0.00000000
     atom   11 type  1   force =    -0.00000137   -0.00000088    0.00000000
     atom   12 type  1   force =    -0.00000356   -0.00000065    0.00000000
     atom   13 type  1   force =     0.00000098   -0.00000062    0.00000000
     atom   14 type  1   force =     0.00000049    0.00000311    0.00000000
     atom   15 type  1   force =    -0.00000011   -0.00000109    0.00000000
     atom   16 type  1   force =     0.00000570    0.00000148    0.00000000
     atom   17 type  1   force =    -0.00000012    0.00000258    0.00000000

     Total force =     0.000015     Total SCF correction =     0.000036
     SCF correction compared to forces is large: reduce conv_thr to get better values


     Computing stress (Cartesian axis) and pressure

          total   stress  (Ry/bohr**3)                   (kbar)     P=    0.00
   0.00000002  -0.00000000   0.00000000          0.00     -0.00      0.00
  -0.00000000   0.00000003   0.00000000         -0.00      0.00      0.00
   0.00000000   0.00000000  -0.00000001          0.00      0.00     -0.00


     Writing output data file 7al_planar_2x2_vcr.save/
 
     init_run     :     19.53s CPU     20.65s WALL (       2 calls)
     electrons    :  10160.27s CPU  10385.74s WALL (     220 calls)
     update_pot   :   3006.95s CPU   3029.65s WALL (     218 calls)
     forces       :   1877.48s CPU   1900.20s WALL (     220 calls)
     stress       :   3763.23s CPU   3821.25s WALL (     220 calls)

     Called by init_run:
     wfcinit      :      5.44s CPU      6.26s WALL (       2 calls)
     potinit      :      5.33s CPU      5.46s WALL (       2 calls)
     hinit0       :      7.56s CPU      7.69s WALL (       2 calls)

     Called by electrons:
     c_bands      :   8028.34s CPU   8117.35s WALL (    1744 calls)
     sum_band     :   1096.60s CPU   1106.95s WALL (    1744 calls)
     v_of_rho     :    943.15s CPU   1024.41s WALL (    1868 calls)
     mix_rho      :    140.78s CPU    174.73s WALL (    1744 calls)

     Called by c_bands:
     init_us_2    :    145.42s CPU    147.05s WALL (    3490 calls)
     cegterg      :   6405.21s CPU   6484.39s WALL (    1744 calls)

     Called by sum_band:

     Called by *egterg:
     h_psi        :   5656.72s CPU   5717.51s WALL (    7584 calls)
     g_psi        :     36.18s CPU     36.44s WALL (    5838 calls)
     cdiaghg      :     17.29s CPU     17.51s WALL (    7268 calls)

     Called by h_psi:
     h_psi:pot    :   5645.31s CPU   5693.07s WALL (    7584 calls)
     h_psi:calbec :    771.11s CPU    775.35s WALL (    7584 calls)
     vloc_psi     :   4098.62s CPU   4139.14s WALL (    7584 calls)
     add_vuspsi   :    775.48s CPU    778.51s WALL (    7584 calls)

     General routines
     calbec       :    937.84s CPU    943.56s WALL (    8684 calls)
     fft          :   1094.18s CPU   1165.06s WALL (   24494 calls)
     ffts         :     50.90s CPU     51.21s WALL (    1744 calls)
     fftw         :   4505.18s CPU   4550.39s WALL (  358216 calls)
 
     Parallel routines
     fft_scatt_xy :    574.67s CPU    581.85s WALL (  384454 calls)
     fft_scatt_yz :   3047.60s CPU   3087.08s WALL (  384454 calls)
 
     PWSCF        :     5h14m CPU       14h 5m WALL

      20h
 
   This run was terminated on:  21:17:39  25Nov2020            

=------------------------------------------------------------------------------=
   JOB DONE.
=------------------------------------------------------------------------------=
