
     Program PWSCF v.6.3MaX starts on 26Nov2020 at  8: 7:27 

     This program is part of the open-source Quantum ESPRESSO suite
     for quantum simulation of materials; please cite
         "P. Giannozzi et al., J. Phys.:Condens. Matter 21 395502 (2009);
         "P. Giannozzi et al., J. Phys.:Condens. Matter 29 465901 (2017);
          URL http://www.quantum-espresso.org", 
     in publications or presentations arising from this work. More details at
     http://www.quantum-espresso.org/quote

     Parallel version (MPI), running on     8 processors

     MPI processes distributed on     2 nodes
     R & G space division:  proc/nbgrp/npool/nimage =       8
     Waiting for input...
     Reading input from standard input

     Current dimensions of program PWSCF are:
     Max number of different atomic species (ntypx) = 10
     Max number of k-points (npk) =  40000
     Max angular momentum in pseudopotentials (lmaxx) =  3

     Subspace diagonalization in iterative solution of the eigenvalue problem:
     a serial algorithm will be used

 
     Parallelization info
     --------------------
     sticks:   dense  smooth     PW     G-vecs:    dense   smooth      PW
     Min        3123    3123    778               448599   448599   56048
     Max        3124    3124    779               448604   448604   56052
     Sum       24985   24985   6229              3588803  3588803  448403
 


     bravais-lattice index     =            4
     lattice parameter (alat)  =      33.6810  a.u.
     unit-cell volume          =   37130.3117 (a.u.)^3
     number of atoms/cell      =           31
     number of atomic types    =            1
     number of electrons       =        93.00
     number of Kohn-Sham states=           56
     kinetic-energy cutoff     =      80.0000  Ry
     charge density cutoff     =     320.0000  Ry
     convergence threshold     =      1.0E-06
     mixing beta               =       0.4000
     number of iterations used =            8  plain     mixing
     Exchange-correlation      = PBE ( 1  4  3  4 0 0)
     nstep                     =          300


     celldm(1)=  33.680967  celldm(2)=   0.000000  celldm(3)=   1.122133
     celldm(4)=   0.000000  celldm(5)=   0.000000  celldm(6)=   0.000000

     crystal axes: (cart. coord. in units of alat)
               a(1) = (   1.000000   0.000000   0.000000 )  
               a(2) = (  -0.500000   0.866025   0.000000 )  
               a(3) = (   0.000000   0.000000   1.122133 )  

     reciprocal axes: (cart. coord. in units 2 pi/alat)
               b(1) = (  1.000000  0.577350  0.000000 )  
               b(2) = (  0.000000  1.154701  0.000000 )  
               b(3) = (  0.000000  0.000000  0.891160 )  


     PseudoPot. # 1 for Al read from file:
     ./Al.upf
     MD5 check sum: 4974d48a734c9d7d1eb6780a1419d19d
     Pseudo is Norm-conserving + core correction, Zval =  3.0
     Generated using ONCVPSP code by D. R. Hamann
     Using radial grid of 1876 points,  6 beta functions with: 
                l(1) =   0
                l(2) =   0
                l(3) =   1
                l(4) =   1
                l(5) =   2
                l(6) =   2

     atomic species   valence    mass     pseudopotential
        Al             3.00    29.98200     Al( 1.00)

      2 Sym. Ops. (no inversion) found



   Cartesian axes

     site n.     atom                  positions (alat units)
         1           Al  tau(   1) = (  -0.0000000   0.1443393   0.0000000  )
         2           Al  tau(   2) = (   0.1250015   0.0721696   0.0000000  )
         3           Al  tau(   3) = (  -0.1249997   0.3608472   0.0000000  )
         4           Al  tau(   4) = (   0.0000018   0.2886775   0.0000000  )
         5           Al  tau(   5) = (  -0.2499994   0.5773550   0.0000000  )
         6           Al  tau(   6) = (  -0.1249979   0.5051854   0.0000000  )
         7           Al  tau(   7) = (  -0.3749991   0.7938629   0.0000000  )
         8           Al  tau(   8) = (  -0.2499976   0.7216932   0.0000000  )
         9           Al  tau(   9) = (   0.2500011   0.1443403   0.0000000  )
        10           Al  tau(  10) = (   0.3750027   0.0721706   0.0000000  )
        11           Al  tau(  11) = (   0.1250014   0.3608482   0.0000000  )
        12           Al  tau(  12) = (   0.2500030   0.2886785   0.0000000  )
        13           Al  tau(  13) = (   0.0000017   0.5773560   0.0000000  )
        14           Al  tau(  14) = (   0.1250033   0.5051864   0.0000000  )
        15           Al  tau(  15) = (  -0.1249980   0.7938639   0.0000000  )
        16           Al  tau(  16) = (   0.0000036   0.7216942   0.0000000  )
        17           Al  tau(  17) = (   0.5000023   0.1443413   0.0000000  )
        18           Al  tau(  18) = (   0.6250038   0.0721717   0.0000000  )
        19           Al  tau(  19) = (   0.5000041   0.2886795   0.0000000  )
        20           Al  tau(  20) = (   0.2500029   0.5773571   0.0000000  )
        21           Al  tau(  21) = (   0.3750044   0.5051874   0.0000000  )
        22           Al  tau(  22) = (   0.1250032   0.7938649   0.0000000  )
        23           Al  tau(  23) = (   0.2500047   0.7216953   0.0000000  )
        24           Al  tau(  24) = (   0.7500035   0.1443423   0.0000000  )
        25           Al  tau(  25) = (   0.8750050   0.0721727   0.0000000  )
        26           Al  tau(  26) = (   0.6250038   0.3608502   0.0000000  )
        27           Al  tau(  27) = (   0.7500053   0.2886805   0.0000000  )
        28           Al  tau(  28) = (   0.5000041   0.5773581   0.0000000  )
        29           Al  tau(  29) = (   0.6250056   0.5051884   0.0000000  )
        30           Al  tau(  30) = (   0.3750044   0.7938660   0.0000000  )
        31           Al  tau(  31) = (   0.5000059   0.7216963   0.0000000  )

     number of k points=     1  Methfessel-Paxton smearing, width (Ry)=  0.0500
                       cart. coord. in units 2pi/alat
        k(    1) = (   0.0000000   0.0000000   0.0000000), wk =   2.0000000

     Dense  grid:  3588803 G-vectors     FFT dimensions: ( 192, 192, 216)

     Estimated max dynamical RAM per process >       1.15 GB

     Estimated total dynamical RAM >       9.23 GB

     Initial potential from superposition of free atoms

     starting charge   92.92414, renormalised to   93.00000

     negative rho (up, down):  9.278E-05 0.000E+00
     Starting wfcs are  124 randomized atomic wfcs

     total cpu time spent up to now is       30.9 secs

     Self-consistent Calculation

     iteration #  1     ecut=    80.00 Ry     beta= 0.40
     Davidson diagonalization with overlap
     ethr =  1.00E-02,  avg # of iterations =  2.0

     total cpu time spent up to now is       57.4 secs

     total energy              =    -140.64175959 Ry
     Harris-Foulkes estimate   =    -141.23601560 Ry
     estimated scf accuracy    <       1.54928191 Ry

     iteration #  2     ecut=    80.00 Ry     beta= 0.40
     Davidson diagonalization with overlap
     ethr =  1.67E-03,  avg # of iterations =  5.0

     total cpu time spent up to now is       85.7 secs

     total energy              =    -140.21843353 Ry
     Harris-Foulkes estimate   =    -141.45979308 Ry
     estimated scf accuracy    <       6.76385723 Ry

     iteration #  3     ecut=    80.00 Ry     beta= 0.40
     Davidson diagonalization with overlap
     ethr =  1.67E-03,  avg # of iterations =  5.0

     total cpu time spent up to now is      113.6 secs

     total energy              =    -140.82809149 Ry
     Harris-Foulkes estimate   =    -141.02282432 Ry
     estimated scf accuracy    <       1.16937406 Ry

     iteration #  4     ecut=    80.00 Ry     beta= 0.40
     Davidson diagonalization with overlap
     ethr =  1.26E-03,  avg # of iterations =  1.0

     total cpu time spent up to now is      133.2 secs

     total energy              =    -140.90067007 Ry
     Harris-Foulkes estimate   =    -140.94395767 Ry
     estimated scf accuracy    <       0.14871338 Ry

     iteration #  5     ecut=    80.00 Ry     beta= 0.40
     Davidson diagonalization with overlap
     ethr =  1.60E-04,  avg # of iterations =  4.0

     total cpu time spent up to now is      161.4 secs

     total energy              =    -140.91340974 Ry
     Harris-Foulkes estimate   =    -140.95556342 Ry
     estimated scf accuracy    <       0.30243709 Ry

     iteration #  6     ecut=    80.00 Ry     beta= 0.40
     Davidson diagonalization with overlap
     ethr =  1.60E-04,  avg # of iterations =  3.0

     total cpu time spent up to now is      186.0 secs

     total energy              =    -140.93237935 Ry
     Harris-Foulkes estimate   =    -140.93465888 Ry
     estimated scf accuracy    <       0.00990238 Ry

     iteration #  7     ecut=    80.00 Ry     beta= 0.40
     Davidson diagonalization with overlap
     ethr =  1.06E-05,  avg # of iterations = 11.0

     total cpu time spent up to now is      223.7 secs

     total energy              =    -140.93559305 Ry
     Harris-Foulkes estimate   =    -140.93686587 Ry
     estimated scf accuracy    <       0.00674098 Ry

     iteration #  8     ecut=    80.00 Ry     beta= 0.40
     Davidson diagonalization with overlap
     ethr =  7.25E-06,  avg # of iterations =  3.0

     total cpu time spent up to now is      244.8 secs

     total energy              =    -140.93578497 Ry
     Harris-Foulkes estimate   =    -140.93646201 Ry
     estimated scf accuracy    <       0.00344028 Ry

     iteration #  9     ecut=    80.00 Ry     beta= 0.40
     Davidson diagonalization with overlap
     ethr =  3.70E-06,  avg # of iterations =  1.0

     total cpu time spent up to now is      265.7 secs

     total energy              =    -140.93589768 Ry
     Harris-Foulkes estimate   =    -140.93613737 Ry
     estimated scf accuracy    <       0.00141161 Ry

     iteration # 10     ecut=    80.00 Ry     beta= 0.40
     Davidson diagonalization with overlap
     ethr =  1.52E-06,  avg # of iterations =  3.0

     total cpu time spent up to now is      286.9 secs

     total energy              =    -140.93602671 Ry
     Harris-Foulkes estimate   =    -140.93610580 Ry
     estimated scf accuracy    <       0.00041822 Ry

     iteration # 11     ecut=    80.00 Ry     beta= 0.40
     Davidson diagonalization with overlap
     ethr =  4.50E-07,  avg # of iterations =  4.0

     total cpu time spent up to now is      310.7 secs

     total energy              =    -140.93608065 Ry
     Harris-Foulkes estimate   =    -140.93611694 Ry
     estimated scf accuracy    <       0.00017899 Ry

     iteration # 12     ecut=    80.00 Ry     beta= 0.40
     Davidson diagonalization with overlap
     ethr =  1.92E-07,  avg # of iterations =  4.0

     total cpu time spent up to now is      333.0 secs

     total energy              =    -140.93609899 Ry
     Harris-Foulkes estimate   =    -140.93611630 Ry
     estimated scf accuracy    <       0.00011030 Ry

     iteration # 13     ecut=    80.00 Ry     beta= 0.40
     Davidson diagonalization with overlap
     ethr =  1.19E-07,  avg # of iterations =  1.0

     total cpu time spent up to now is      352.5 secs

     total energy              =    -140.93610548 Ry
     Harris-Foulkes estimate   =    -140.93610855 Ry
     estimated scf accuracy    <       0.00001456 Ry

     iteration # 14     ecut=    80.00 Ry     beta= 0.40
     Davidson diagonalization with overlap
     ethr =  1.57E-08,  avg # of iterations =  6.0

     total cpu time spent up to now is      379.2 secs

     total energy              =    -140.93610771 Ry
     Harris-Foulkes estimate   =    -140.93610991 Ry
     estimated scf accuracy    <       0.00001145 Ry

     iteration # 15     ecut=    80.00 Ry     beta= 0.40
     Davidson diagonalization with overlap
     ethr =  1.23E-08,  avg # of iterations =  3.0

     total cpu time spent up to now is      401.6 secs

     total energy              =    -140.93610734 Ry
     Harris-Foulkes estimate   =    -140.93610955 Ry
     estimated scf accuracy    <       0.00001386 Ry

     iteration # 16     ecut=    80.00 Ry     beta= 0.40
     Davidson diagonalization with overlap
     ethr =  1.23E-08,  avg # of iterations =  2.0

     total cpu time spent up to now is      423.6 secs

     total energy              =    -140.93610819 Ry
     Harris-Foulkes estimate   =    -140.93610857 Ry
     estimated scf accuracy    <       0.00000185 Ry

     iteration # 17     ecut=    80.00 Ry     beta= 0.40
     Davidson diagonalization with overlap
     ethr =  1.99E-09,  avg # of iterations =  5.0

     total cpu time spent up to now is      448.1 secs

     End of self-consistent calculation

          k = 0.0000 0.0000 0.0000 (448403 PWs)   bands (ev):

    -9.9529  -9.4483  -9.4331  -9.4328  -9.4259  -9.4257  -9.1459  -8.4048
    -8.4047  -8.3883  -8.3880  -8.3797  -8.3035  -8.2570  -8.2568  -7.5866
    -6.9324  -6.9324  -6.8232  -6.4866  -6.4772  -6.4772  -6.3701  -6.3700
    -5.4641  -4.8434  -4.8433  -4.8368  -4.7357  -4.7356  -4.4780  -4.4680
    -4.4428  -4.4428  -4.1226  -4.1224  -3.9779  -3.4711  -3.4688  -3.4686
    -3.4577  -3.4575  -3.4017  -3.2744  -3.2743  -3.2224  -3.2076  -2.9743
    -2.9653  -2.9652  -2.9389  -2.5197  -2.5196  -2.4500  -2.4492  -2.4314

     the Fermi energy is    -3.0911 ev

!    total energy              =    -140.93610784 Ry
     Harris-Foulkes estimate   =    -140.93610851 Ry
     estimated scf accuracy    <       0.00000076 Ry

     The total energy is the sum of the following terms:

     one-electron contribution =    -502.03537518 Ry
     hartree contribution      =     259.76215387 Ry
     xc contribution           =     -61.33561119 Ry
     ewald contribution        =     162.75374192 Ry
     smearing contrib. (-TS)   =      -0.08101727 Ry

     convergence has been achieved in  17 iterations

     Forces acting on atoms (cartesian axes, Ry/au):

     atom    1 type  1   force =    -0.00183076   -0.00107523    0.00000000
     atom    2 type  1   force =     0.00525425    0.00128646    0.00000000
     atom    3 type  1   force =     0.00000956   -0.00230742    0.00000000
     atom    4 type  1   force =     0.00370535    0.00393323    0.00000000
     atom    5 type  1   force =     0.00117648    0.00069719    0.00000000
     atom    6 type  1   force =    -0.00002045   -0.00051628    0.00000000
     atom    7 type  1   force =    -0.00196402    0.00114851    0.00000000
     atom    8 type  1   force =    -0.00045846    0.00021387    0.00000000
     atom    9 type  1   force =     0.00064249   -0.00331581    0.00000000
     atom   10 type  1   force =    -0.00001517    0.00133077    0.00000000
     atom   11 type  1   force =    -0.00252182    0.00219504    0.00000000
     atom   12 type  1   force =     0.01312006    0.00760648    0.00000000
     atom   13 type  1   force =    -0.00114861    0.00069633    0.00000000
     atom   14 type  1   force =     0.00115867   -0.00066149    0.00000000
     atom   15 type  1   force =     0.00000962   -0.00132284    0.00000000
     atom   16 type  1   force =     0.00045398    0.00023607    0.00000000
     atom   17 type  1   force =    -0.00062464   -0.00332510    0.00000000
     atom   18 type  1   force =    -0.00525897    0.00127405    0.00000000
     atom   19 type  1   force =    -0.01312987    0.00761504    0.00000000
     atom   20 type  1   force =    -0.00314299    0.00111271    0.00000000
     atom   21 type  1   force =    -0.00000509   -0.01513635    0.00000000
     atom   22 type  1   force =     0.00198729    0.00114132    0.00000000
     atom   23 type  1   force =    -0.00154703   -0.00522800    0.00000000
     atom   24 type  1   force =     0.00184588   -0.00107386    0.00000000
     atom   25 type  1   force =    -0.00001296    0.00000825    0.00000000
     atom   26 type  1   force =     0.00252940    0.00219964    0.00000000
     atom   27 type  1   force =    -0.00371376    0.00392491    0.00000000
     atom   28 type  1   force =     0.00315453    0.00110098    0.00000000
     atom   29 type  1   force =    -0.00117560   -0.00066075    0.00000000
     atom   30 type  1   force =    -0.00000357    0.00214181    0.00000000
     atom   31 type  1   force =     0.00152623   -0.00523954    0.00000000

     Total force =     0.031216     Total SCF correction =     0.000652


     Computing stress (Cartesian axis) and pressure

          total   stress  (Ry/bohr**3)                   (kbar)     P=   -0.57
  -0.00000577   0.00000001   0.00000000         -0.85      0.00      0.00
   0.00000001  -0.00000580   0.00000000          0.00     -0.85      0.00
   0.00000000   0.00000000  -0.00000001          0.00      0.00     -0.00


     BFGS Geometry Optimization

     number of scf cycles    =   1
     number of bfgs steps    =   0

     enthalpy new            =    -140.9361078449 Ry

     new trust radius        =       0.0151783521 bohr
     new conv_thr            =       0.0000010000 Ry

     new unit-cell volume =  37119.57356 a.u.^3 (  5500.55323 Ang^3 )
     density =      0.28059 g/cm^3

CELL_PARAMETERS (alat= 33.68096681)
   0.999855768   0.000000302   0.000000000
  -0.499927622   0.865899687   0.000000000
   0.000000000   0.000000000   1.122132950

ATOMIC_POSITIONS (angstrom)
Al      -0.000968467   2.571645963   0.000000000
Al       2.230385818   1.286788271   0.000000000
Al      -2.227566891   6.429296941   0.000000000
Al       0.001994153   5.146491606   0.000000000
Al      -4.454521611  10.289189612   0.000000000
Al      -2.227549312   9.002440294   0.000000000
Al      -6.683755395  14.147731335   0.000000000
Al      -4.455353203  12.861129551   0.000000000
Al       4.455518258   2.570480013   0.000000000
Al       6.682775891   1.286831256   0.000000000
Al       2.226271878   6.431698738   0.000000000
Al       4.462153611   5.148454667   0.000000000
Al      -0.000573695  10.289208700   0.000000000
Al       2.228252690   9.002383008   0.000000000
Al      -2.227533014  14.146443282   0.000000000
Al       0.000307695  12.861160836   0.000000000
Al       8.910025942   2.570494640   0.000000000
Al      11.135179519   1.286820784   0.000000000
Al       8.903442874   5.148478730   0.000000000
Al       4.453549200  10.289448546   0.000000000
Al       6.682815062   8.994743891   0.000000000
Al       2.228691497  14.147766613   0.000000000
Al       4.454427082  12.858289336   0.000000000
Al      13.366511225   2.571705312   0.000000000
Al      15.593133309   1.286170588   0.000000000
Al      11.139300732   6.431740255   0.000000000
Al      13.363603074   5.146545828   0.000000000
Al       8.912059351  10.289461879   0.000000000
Al      11.137373874   9.002422484   0.000000000
Al       6.682816255  14.148315515   0.000000000
Al       8.911231270  12.858302770   0.000000000



     Writing output data file 19al_planar_2x2_vcr.save/
     NEW-OLD atomic charge density approx. for the potential

     negative rho (up, down):  2.995E-07 0.000E+00
     extrapolated charge   92.97312, renormalised to   93.00000

     total cpu time spent up to now is      521.9 secs

     Self-consistent Calculation

     iteration #  1     ecut=    80.00 Ry     beta= 0.40
     Davidson diagonalization with overlap
     ethr =  1.00E-06,  avg # of iterations =  4.0

     negative rho (up, down):  1.478E-07 0.000E+00

     total cpu time spent up to now is      552.3 secs

     total energy              =    -140.93704797 Ry
     Harris-Foulkes estimate   =    -141.07014649 Ry
     estimated scf accuracy    <       0.00011069 Ry

     iteration #  2     ecut=    80.00 Ry     beta= 0.40
     Davidson diagonalization with overlap
     ethr =  1.19E-07,  avg # of iterations =  5.0

     negative rho (up, down):  1.335E-07 0.000E+00

     total cpu time spent up to now is      583.7 secs

     total energy              =    -140.93699370 Ry
     Harris-Foulkes estimate   =    -140.93724003 Ry
     estimated scf accuracy    <       0.00196099 Ry

     iteration #  3     ecut=    80.00 Ry     beta= 0.40
     Davidson diagonalization with overlap
     ethr =  1.19E-07,  avg # of iterations =  5.0

     negative rho (up, down):  9.027E-08 0.000E+00

     total cpu time spent up to now is      613.5 secs

     total energy              =    -140.93710903 Ry
     Harris-Foulkes estimate   =    -140.93711375 Ry
     estimated scf accuracy    <       0.00001733 Ry

     iteration #  4     ecut=    80.00 Ry     beta= 0.40
     Davidson diagonalization with overlap
     ethr =  1.86E-08,  avg # of iterations =  4.0

     negative rho (up, down):  5.977E-08 0.000E+00

     total cpu time spent up to now is      638.0 secs

     total energy              =    -140.93710999 Ry
     Harris-Foulkes estimate   =    -140.93711241 Ry
     estimated scf accuracy    <       0.00001005 Ry

     iteration #  5     ecut=    80.00 Ry     beta= 0.40
     Davidson diagonalization with overlap
     ethr =  1.08E-08,  avg # of iterations =  4.0

     negative rho (up, down):  3.360E-08 0.000E+00

     total cpu time spent up to now is      660.6 secs

     total energy              =    -140.93711000 Ry
     Harris-Foulkes estimate   =    -140.93711282 Ry
     estimated scf accuracy    <       0.00001709 Ry

     iteration #  6     ecut=    80.00 Ry     beta= 0.40
     Davidson diagonalization with overlap
     ethr =  1.08E-08,  avg # of iterations =  3.0

     negative rho (up, down):  1.426E-08 0.000E+00

     total cpu time spent up to now is      682.8 secs

     total energy              =    -140.93711148 Ry
     Harris-Foulkes estimate   =    -140.93711179 Ry
     estimated scf accuracy    <       0.00000167 Ry

     iteration #  7     ecut=    80.00 Ry     beta= 0.40
     Davidson diagonalization with overlap
     ethr =  1.79E-09,  avg # of iterations =  6.0

     total cpu time spent up to now is      709.5 secs

     total energy              =    -140.93711128 Ry
     Harris-Foulkes estimate   =    -140.93711188 Ry
     estimated scf accuracy    <       0.00000392 Ry

     iteration #  8     ecut=    80.00 Ry     beta= 0.40
     Davidson diagonalization with overlap
     ethr =  1.79E-09,  avg # of iterations =  4.0

     total cpu time spent up to now is      735.1 secs

     End of self-consistent calculation

          k = 0.0000 0.0000 0.0000 (448403 PWs)   bands (ev):

    -9.9533  -9.4485  -9.4336  -9.4335  -9.4255  -9.4254  -9.1439  -8.4041
    -8.4040  -8.3845  -8.3845  -8.3828  -8.3051  -8.2545  -8.2544  -7.5853
    -6.9323  -6.9323  -6.8229  -6.4824  -6.4776  -6.4776  -6.3722  -6.3722
    -5.4694  -4.8396  -4.8395  -4.8350  -4.7366  -4.7364  -4.4766  -4.4673
    -4.4431  -4.4431  -4.1253  -4.1251  -3.9780  -3.4710  -3.4677  -3.4676
    -3.4584  -3.4582  -3.3999  -3.2732  -3.2731  -3.2211  -3.2176  -2.9704
    -2.9635  -2.9635  -2.9412  -2.5171  -2.5169  -2.4466  -2.4459  -2.4337

     the Fermi energy is    -3.0908 ev

!    total energy              =    -140.93711107 Ry
     Harris-Foulkes estimate   =    -140.93711144 Ry
     estimated scf accuracy    <       0.00000050 Ry

     The total energy is the sum of the following terms:

     one-electron contribution =    -502.12518352 Ry
     hartree contribution      =     259.80747046 Ry
     xc contribution           =     -61.33395122 Ry
     ewald contribution        =     162.79524565 Ry
     smearing contrib. (-TS)   =      -0.08069244 Ry

     convergence has been achieved in   8 iterations

     Forces acting on atoms (cartesian axes, Ry/au):

     atom    1 type  1   force =    -0.00135946   -0.00077628    0.00000000
     atom    2 type  1   force =     0.00440622    0.00123522    0.00000000
     atom    3 type  1   force =     0.00001988   -0.00225360    0.00000000
     atom    4 type  1   force =     0.00327156    0.00320698    0.00000000
     atom    5 type  1   force =     0.00094799    0.00057069    0.00000000
     atom    6 type  1   force =     0.00000161   -0.00074938    0.00000000
     atom    7 type  1   force =    -0.00192865    0.00111923    0.00000000
     atom    8 type  1   force =    -0.00063910    0.00037734    0.00000000
     atom    9 type  1   force =     0.00071730   -0.00199747    0.00000000
     atom   10 type  1   force =    -0.00000721    0.00094776    0.00000000
     atom   11 type  1   force =    -0.00136214    0.00160976    0.00000000
     atom   12 type  1   force =     0.01296096    0.00750166    0.00000000
     atom   13 type  1   force =    -0.00092412    0.00056041    0.00000000
     atom   14 type  1   force =     0.00083859   -0.00048595    0.00000000
     atom   15 type  1   force =    -0.00000784   -0.00107822    0.00000000
     atom   16 type  1   force =     0.00063972    0.00036222    0.00000000
     atom   17 type  1   force =    -0.00071081   -0.00200217    0.00000000
     atom   18 type  1   force =    -0.00441504    0.00122768    0.00000000
     atom   19 type  1   force =    -0.01297484    0.00750576    0.00000000
     atom   20 type  1   force =    -0.00208785    0.00039433    0.00000000
     atom   21 type  1   force =    -0.00000992   -0.01498209    0.00000000
     atom   22 type  1   force =     0.00194880    0.00111138    0.00000000
     atom   23 type  1   force =    -0.00113986   -0.00444832    0.00000000
     atom   24 type  1   force =     0.00137290   -0.00079724    0.00000000
     atom   25 type  1   force =    -0.00000392    0.00000988    0.00000000
     atom   26 type  1   force =     0.00136458    0.00160176    0.00000000
     atom   27 type  1   force =    -0.00327558    0.00320780    0.00000000
     atom   28 type  1   force =     0.00208304    0.00039371    0.00000000
     atom   29 type  1   force =    -0.00085045   -0.00048494    0.00000000
     atom   30 type  1   force =    -0.00000284    0.00155683    0.00000000
     atom   31 type  1   force =     0.00112646   -0.00444473    0.00000000

     Total force =     0.029272     Total SCF correction =     0.000515


     Computing stress (Cartesian axis) and pressure

          total   stress  (Ry/bohr**3)                   (kbar)     P=   -0.58
  -0.00000590   0.00000000   0.00000000         -0.87      0.00      0.00
   0.00000000  -0.00000593   0.00000000          0.00     -0.87      0.00
   0.00000000   0.00000000   0.00000001          0.00      0.00      0.00


     number of scf cycles    =   2
     number of bfgs steps    =   1

     enthalpy old            =    -140.9361078449 Ry
     enthalpy new            =    -140.9371110666 Ry

     CASE: enthalpy_new < enthalpy_old


     WARNING: bfgs curvature condition failed, Theta= 0.854
     new trust radius        =       0.0227642340 bohr
     new conv_thr            =       0.0000010000 Ry

     new unit-cell volume =  37103.11503 a.u.^3 (  5498.11432 Ang^3 )
     density =      0.28071 g/cm^3

CELL_PARAMETERS (alat= 33.68096681)
   0.999634688   0.000000582   0.000000000
  -0.499816840   0.865707032   0.000000000
   0.000000000   0.000000000   1.122132950

ATOMIC_POSITIONS (angstrom)
Al      -0.002199839   2.570361346   0.000000000
Al       2.233677610   1.287506271   0.000000000
Al      -2.227059843   6.426048349   0.000000000
Al       0.004744787   5.148135542   0.000000000
Al      -4.452705349  10.287396092   0.000000000
Al      -2.227059775   8.999910824   0.000000000
Al      -6.683826621  14.145487960   0.000000000
Al      -4.454819812  12.858520221   0.000000000
Al       4.455084293   2.567906203   0.000000000
Al       6.681290391   1.287422910   0.000000000
Al       2.224334769   6.431736978   0.000000000
Al       4.471580940   5.153341831   0.000000000
Al      -0.001378819  10.287411105   0.000000000
Al       2.228531714   8.999939461   0.000000000
Al      -2.227037415  14.142359946   0.000000000
Al       0.000765472  12.858552162   0.000000000
Al       8.907514749   2.567916895   0.000000000
Al      11.128927371   1.287533727   0.000000000
Al       8.891053292   5.153371764   0.000000000
Al       4.450572645  10.287698899   0.000000000
Al       6.681333472   8.980718880   0.000000000
Al       2.229772766  14.145519650   0.000000000
Al       4.452408802  12.851634618   0.000000000
Al      13.364800013   2.570414538   0.000000000
Al      15.589679921   1.285896383   0.000000000
Al      11.138289686   6.431778461   0.000000000
Al      13.357895458   5.148191317   0.000000000
Al       8.912087553  10.287709553   0.000000000
Al      11.134133536   8.999982142   0.000000000
Al       6.681340060  14.146596948   0.000000000
Al       8.910288421  12.851647500   0.000000000



     Writing output data file 19al_planar_2x2_vcr.save/
     NEW-OLD atomic charge density approx. for the potential

     negative rho (up, down):  4.814E-07 0.000E+00
     extrapolated charge   92.95878, renormalised to   93.00000

     total cpu time spent up to now is      810.8 secs

     Self-consistent Calculation

     iteration #  1     ecut=    80.00 Ry     beta= 0.40
     Davidson diagonalization with overlap
     ethr =  1.00E-06,  avg # of iterations =  4.0

     negative rho (up, down):  2.412E-07 0.000E+00

     total cpu time spent up to now is      843.9 secs

     total energy              =    -140.93841268 Ry
     Harris-Foulkes estimate   =    -141.14252558 Ry
     estimated scf accuracy    <       0.00012304 Ry

     iteration #  2     ecut=    80.00 Ry     beta= 0.40
     Davidson diagonalization with overlap
     ethr =  1.32E-07,  avg # of iterations =  5.0

     negative rho (up, down):  2.166E-07 0.000E+00

     total cpu time spent up to now is      873.4 secs

     total energy              =    -140.93838218 Ry
     Harris-Foulkes estimate   =    -140.93857561 Ry
     estimated scf accuracy    <       0.00144095 Ry

     iteration #  3     ecut=    80.00 Ry     beta= 0.40
     Davidson diagonalization with overlap
     ethr =  1.32E-07,  avg # of iterations =  4.0

     negative rho (up, down):  1.403E-07 0.000E+00

     total cpu time spent up to now is      899.1 secs

     total energy              =    -140.93847572 Ry
     Harris-Foulkes estimate   =    -140.93848438 Ry
     estimated scf accuracy    <       0.00004071 Ry

     iteration #  4     ecut=    80.00 Ry     beta= 0.40
     Davidson diagonalization with overlap
     ethr =  4.38E-08,  avg # of iterations =  2.0

     negative rho (up, down):  1.015E-07 0.000E+00

     total cpu time spent up to now is      919.9 secs

     total energy              =    -140.93847624 Ry
     Harris-Foulkes estimate   =    -140.93848105 Ry
     estimated scf accuracy    <       0.00001870 Ry

     iteration #  5     ecut=    80.00 Ry     beta= 0.40
     Davidson diagonalization with overlap
     ethr =  2.01E-08,  avg # of iterations =  4.0

     negative rho (up, down):  4.849E-08 0.000E+00

     total cpu time spent up to now is      945.6 secs

     total energy              =    -140.93847740 Ry
     Harris-Foulkes estimate   =    -140.93848165 Ry
     estimated scf accuracy    <       0.00002633 Ry

     iteration #  6     ecut=    80.00 Ry     beta= 0.40
     Davidson diagonalization with overlap
     ethr =  2.01E-08,  avg # of iterations =  3.0

     negative rho (up, down):  2.055E-08 0.000E+00

     total cpu time spent up to now is      968.9 secs

     total energy              =    -140.93847948 Ry
     Harris-Foulkes estimate   =    -140.93847994 Ry
     estimated scf accuracy    <       0.00000234 Ry

     iteration #  7     ecut=    80.00 Ry     beta= 0.40
     Davidson diagonalization with overlap
     ethr =  2.51E-09,  avg # of iterations =  5.0

     negative rho (up, down):  1.157E-08 0.000E+00

     total cpu time spent up to now is     1000.1 secs

     total energy              =    -140.93847924 Ry
     Harris-Foulkes estimate   =    -140.93848048 Ry
     estimated scf accuracy    <       0.00000926 Ry

     iteration #  8     ecut=    80.00 Ry     beta= 0.40
     Davidson diagonalization with overlap
     ethr =  2.51E-09,  avg # of iterations =  3.0

     total cpu time spent up to now is     1025.1 secs

     End of self-consistent calculation

          k = 0.0000 0.0000 0.0000 (448403 PWs)   bands (ev):

    -9.9541  -9.4491  -9.4356  -9.4355  -9.4239  -9.4238  -9.1416  -8.4033
    -8.4033  -8.3871  -8.3801  -8.3800  -8.3073  -8.2508  -8.2507  -7.5839
    -6.9324  -6.9324  -6.8227  -6.4780  -6.4780  -6.4768  -6.3751  -6.3750
    -5.4773  -4.8345  -4.8344  -4.8326  -4.7376  -4.7375  -4.4748  -4.4662
    -4.4436  -4.4436  -4.1293  -4.1292  -3.9783  -3.4710  -3.4669  -3.4669
    -3.4587  -3.4587  -3.3974  -3.2715  -3.2714  -3.2329  -3.2197  -2.9654
    -2.9610  -2.9610  -2.9437  -2.5133  -2.5133  -2.4422  -2.4415  -2.4367

     the Fermi energy is    -3.0906 ev

!    total energy              =    -140.93847950 Ry
     Harris-Foulkes estimate   =    -140.93847984 Ry
     estimated scf accuracy    <       0.00000047 Ry

     The total energy is the sum of the following terms:

     one-electron contribution =    -502.26159072 Ry
     hartree contribution      =     259.87537081 Ry
     xc contribution           =     -61.33161560 Ry
     ewald contribution        =     162.85952950 Ry
     smearing contrib. (-TS)   =      -0.08017349 Ry

     convergence has been achieved in   8 iterations

     Forces acting on atoms (cartesian axes, Ry/au):

     atom    1 type  1   force =    -0.00073183   -0.00042784    0.00000000
     atom    2 type  1   force =     0.00330107    0.00118087    0.00000000
     atom    3 type  1   force =     0.00001602   -0.00219360    0.00000000
     atom    4 type  1   force =     0.00265869    0.00228373    0.00000000
     atom    5 type  1   force =     0.00064298    0.00038811    0.00000000
     atom    6 type  1   force =     0.00002536   -0.00104445    0.00000000
     atom    7 type  1   force =    -0.00189286    0.00111073    0.00000000
     atom    8 type  1   force =    -0.00088849    0.00051294    0.00000000
     atom    9 type  1   force =     0.00079737   -0.00022352    0.00000000
     atom   10 type  1   force =    -0.00000172    0.00046895    0.00000000
     atom   11 type  1   force =     0.00022493    0.00079802    0.00000000
     atom   12 type  1   force =     0.01280993    0.00742807    0.00000000
     atom   13 type  1   force =    -0.00065629    0.00038717    0.00000000
     atom   14 type  1   force =     0.00043239   -0.00023658    0.00000000
     atom   15 type  1   force =    -0.00000591   -0.00073694    0.00000000
     atom   16 type  1   force =     0.00091282    0.00049708    0.00000000
     atom   17 type  1   force =    -0.00081250   -0.00023902    0.00000000
     atom   18 type  1   force =    -0.00328533    0.00115885    0.00000000
     atom   19 type  1   force =    -0.01283927    0.00742922    0.00000000
     atom   20 type  1   force =    -0.00059164   -0.00059705    0.00000000
     atom   21 type  1   force =    -0.00001999   -0.01480701    0.00000000
     atom   22 type  1   force =     0.00189582    0.00110338    0.00000000
     atom   23 type  1   force =    -0.00065411   -0.00346821    0.00000000
     atom   24 type  1   force =     0.00074626   -0.00042635    0.00000000
     atom   25 type  1   force =    -0.00001215    0.00002480    0.00000000
     atom   26 type  1   force =    -0.00020177    0.00080129    0.00000000
     atom   27 type  1   force =    -0.00266468    0.00225942    0.00000000
     atom   28 type  1   force =     0.00058685   -0.00057236    0.00000000
     atom   29 type  1   force =    -0.00042445   -0.00023817    0.00000000
     atom   30 type  1   force =     0.00001300    0.00084398    0.00000000
     atom   31 type  1   force =     0.00061951   -0.00346551    0.00000000

     Total force =     0.027545     Total SCF correction =     0.000439


     Computing stress (Cartesian axis) and pressure

          total   stress  (Ry/bohr**3)                   (kbar)     P=   -0.60
  -0.00000607  -0.00000000   0.00000000         -0.89     -0.00      0.00
  -0.00000000  -0.00000611   0.00000000         -0.00     -0.90      0.00
   0.00000000   0.00000000   0.00000003          0.00      0.00      0.00


     number of scf cycles    =   3
     number of bfgs steps    =   2

     enthalpy old            =    -140.9371110666 Ry
     enthalpy new            =    -140.9384795049 Ry

     CASE: enthalpy_new < enthalpy_old

     new trust radius        =       0.0341387821 bohr
     new conv_thr            =       0.0000010000 Ry

     new unit-cell volume =  37077.92805 a.u.^3 (  5494.38200 Ang^3 )
     density =      0.28090 g/cm^3

CELL_PARAMETERS (alat= 33.68096681)
   0.999296372   0.000000799   0.000000000
  -0.499647494   0.865412139   0.000000000
   0.000000000   0.000000000   1.122132950

ATOMIC_POSITIONS (angstrom)
Al      -0.003665778   2.568625514   0.000000000
Al       2.237940343   1.288547653   0.000000000
Al      -2.226288929   6.421155648   0.000000000
Al       0.008505526   5.150013310   0.000000000
Al      -4.450137150  10.284524401   0.000000000
Al      -2.226297961   8.995868527   0.000000000
Al      -6.683880419  14.142028501   0.000000000
Al      -4.454150990  12.854599262   0.000000000
Al       4.454455375   2.565116389   0.000000000
Al       6.679020206   1.288010255   0.000000000
Al       2.222391529   6.431253015   0.000000000
Al       4.485670782   5.160634495   0.000000000
Al      -0.002429331  10.284539369   0.000000000
Al       2.228687433   8.996363996   0.000000000
Al      -2.226279376  14.136343734   0.000000000
Al       0.001623708  12.854633506   0.000000000
Al       8.903621653   2.565112612   0.000000000
Al      11.120150955   1.288555522   0.000000000
Al       8.872418269   5.160670686   0.000000000
Al       4.446997052  10.284387855   0.000000000
Al       6.679058009   8.959643595   0.000000000
Al       2.231354480  14.142053361   0.000000000
Al       4.449640653  12.842142512   0.000000000
Al      13.361762401   2.568683529   0.000000000
Al      15.584388883   1.285483022   0.000000000
Al      11.135732997   6.431301178   0.000000000
Al      13.349605979   5.150051042   0.000000000
Al       8.911148173  10.284409874   0.000000000
Al      11.129455650   8.996407912   0.000000000
Al       6.679088806  14.143489875   0.000000000
Al       8.908505213  12.842151940   0.000000000



     Writing output data file 19al_planar_2x2_vcr.save/
     NEW-OLD atomic charge density approx. for the potential

     negative rho (up, down):  7.509E-07 0.000E+00
     extrapolated charge   92.93688, renormalised to   93.00000

     total cpu time spent up to now is     1100.7 secs

     Self-consistent Calculation

     iteration #  1     ecut=    80.00 Ry     beta= 0.40
     Davidson diagonalization with overlap
     ethr =  1.00E-06,  avg # of iterations =  5.0

     negative rho (up, down):  3.820E-07 0.000E+00

     total cpu time spent up to now is     1135.1 secs

     total energy              =    -140.94022658 Ry
     Harris-Foulkes estimate   =    -141.25294542 Ry
     estimated scf accuracy    <       0.00021788 Ry

     iteration #  2     ecut=    80.00 Ry     beta= 0.40
     Davidson diagonalization with overlap
     ethr =  2.34E-07,  avg # of iterations =  5.0

     negative rho (up, down):  3.453E-07 0.000E+00

     total cpu time spent up to now is     1166.3 secs

     total energy              =    -140.94018424 Ry
     Harris-Foulkes estimate   =    -140.94053323 Ry
     estimated scf accuracy    <       0.00271566 Ry

     iteration #  3     ecut=    80.00 Ry     beta= 0.40
     Davidson diagonalization with overlap
     ethr =  2.34E-07,  avg # of iterations =  4.0

     negative rho (up, down):  2.259E-07 0.000E+00

     total cpu time spent up to now is     1193.2 secs

     total energy              =    -140.94034852 Ry
     Harris-Foulkes estimate   =    -140.94036176 Ry
     estimated scf accuracy    <       0.00005934 Ry

     iteration #  4     ecut=    80.00 Ry     beta= 0.40
     Davidson diagonalization with overlap
     ethr =  6.38E-08,  avg # of iterations =  3.0

     negative rho (up, down):  1.550E-07 0.000E+00

     total cpu time spent up to now is     1215.6 secs

     total energy              =    -140.94034830 Ry
     Harris-Foulkes estimate   =    -140.94035511 Ry
     estimated scf accuracy    <       0.00002588 Ry

     iteration #  5     ecut=    80.00 Ry     beta= 0.40
     Davidson diagonalization with overlap
     ethr =  2.78E-08,  avg # of iterations =  4.0

     negative rho (up, down):  7.112E-08 0.000E+00

     total cpu time spent up to now is     1239.3 secs

     total energy              =    -140.94034583 Ry
     Harris-Foulkes estimate   =    -140.94035965 Ry
     estimated scf accuracy    <       0.00009287 Ry

     iteration #  6     ecut=    80.00 Ry     beta= 0.40
     Davidson diagonalization with overlap
     ethr =  2.78E-08,  avg # of iterations =  4.0

     negative rho (up, down):  2.830E-08 0.000E+00

     total cpu time spent up to now is     1262.1 secs

     total energy              =    -140.94035299 Ry
     Harris-Foulkes estimate   =    -140.94035383 Ry
     estimated scf accuracy    <       0.00000548 Ry

     iteration #  7     ecut=    80.00 Ry     beta= 0.40
     Davidson diagonalization with overlap
     ethr =  5.89E-09,  avg # of iterations =  4.0

     negative rho (up, down):  1.891E-08 0.000E+00

     total cpu time spent up to now is     1286.6 secs

     total energy              =    -140.94035358 Ry
     Harris-Foulkes estimate   =    -140.94035399 Ry
     estimated scf accuracy    <       0.00000244 Ry

     iteration #  8     ecut=    80.00 Ry     beta= 0.40
     Davidson diagonalization with overlap
     ethr =  2.62E-09,  avg # of iterations =  5.0

     total cpu time spent up to now is     1308.9 secs

     total energy              =    -140.94035361 Ry
     Harris-Foulkes estimate   =    -140.94035387 Ry
     estimated scf accuracy    <       0.00000193 Ry

     iteration #  9     ecut=    80.00 Ry     beta= 0.40
     Davidson diagonalization with overlap
     ethr =  2.07E-09,  avg # of iterations =  1.0

     total cpu time spent up to now is     1329.2 secs

     End of self-consistent calculation

          k = 0.0000 0.0000 0.0000 (448403 PWs)   bands (ev):

    -9.9551  -9.4497  -9.4389  -9.4388  -9.4209  -9.4209  -9.1384  -8.4025
    -8.4025  -8.3922  -8.3743  -8.3742  -8.3099  -8.2448  -8.2448  -7.5820
    -6.9325  -6.9324  -6.8228  -6.4780  -6.4779  -6.4692  -6.3782  -6.3782
    -5.4886  -4.8291  -4.8274  -4.8273  -4.7381  -4.7381  -4.4722  -4.4643
    -4.4441  -4.4441  -4.1351  -4.1349  -3.9786  -3.4709  -3.4671  -3.4670
    -3.4579  -3.4578  -3.3935  -3.2687  -3.2686  -3.2556  -3.2178  -2.9602
    -2.9571  -2.9571  -2.9440  -2.5081  -2.5080  -2.4404  -2.4363  -2.4354

     the Fermi energy is    -3.0901 ev

!    total energy              =    -140.94035357 Ry
     Harris-Foulkes estimate   =    -140.94035368 Ry
     estimated scf accuracy    <       0.00000024 Ry

     The total energy is the sum of the following terms:

     one-electron contribution =    -502.47015945 Ry
     hartree contribution      =     259.97848022 Ry
     xc contribution           =     -61.32820755 Ry
     ewald contribution        =     162.95885463 Ry
     smearing contrib. (-TS)   =      -0.07932142 Ry

     convergence has been achieved in   9 iterations

     Forces acting on atoms (cartesian axes, Ry/au):

     atom    1 type  1   force =     0.00004955    0.00000839    0.00000000
     atom    2 type  1   force =     0.00188995    0.00108452    0.00000000
     atom    3 type  1   force =    -0.00000550   -0.00215138    0.00000000
     atom    4 type  1   force =     0.00189006    0.00112861    0.00000000
     atom    5 type  1   force =     0.00027890    0.00021176    0.00000000
     atom    6 type  1   force =     0.00004351   -0.00141327    0.00000000
     atom    7 type  1   force =    -0.00185809    0.00108264    0.00000000
     atom    8 type  1   force =    -0.00118571    0.00068638    0.00000000
     atom    9 type  1   force =     0.00088974    0.00207660    0.00000000
     atom   10 type  1   force =     0.00001151   -0.00009639    0.00000000
     atom   11 type  1   force =     0.00226624   -0.00028568    0.00000000
     atom   12 type  1   force =     0.01276912    0.00740582    0.00000000
     atom   13 type  1   force =    -0.00033284    0.00019899    0.00000000
     atom   14 type  1   force =    -0.00006415    0.00004158    0.00000000
     atom   15 type  1   force =    -0.00003286   -0.00035352    0.00000000
     atom   16 type  1   force =     0.00123080    0.00066637    0.00000000
     atom   17 type  1   force =    -0.00091839    0.00208350    0.00000000
     atom   18 type  1   force =    -0.00187557    0.00106875    0.00000000
     atom   19 type  1   force =    -0.01278768    0.00738399    0.00000000
     atom   20 type  1   force =     0.00137664   -0.00182604    0.00000000
     atom   21 type  1   force =    -0.00002901   -0.01475387    0.00000000
     atom   22 type  1   force =     0.00185270    0.00108498    0.00000000
     atom   23 type  1   force =    -0.00001894   -0.00220319    0.00000000
     atom   24 type  1   force =    -0.00004565    0.00002610    0.00000000
     atom   25 type  1   force =    -0.00000990    0.00001463    0.00000000
     atom   26 type  1   force =    -0.00225372   -0.00026313    0.00000000
     atom   27 type  1   force =    -0.00187260    0.00110026    0.00000000
     atom   28 type  1   force =    -0.00135676   -0.00179826    0.00000000
     atom   29 type  1   force =     0.00008715    0.00004607    0.00000000
     atom   30 type  1   force =     0.00001634   -0.00005734    0.00000000
     atom   31 type  1   force =    -0.00000483   -0.00219789    0.00000000

     Total force =     0.027081     Total SCF correction =     0.000284


     Computing stress (Cartesian axis) and pressure

          total   stress  (Ry/bohr**3)                   (kbar)     P=   -0.62
  -0.00000631  -0.00000002   0.00000000         -0.93     -0.00      0.00
  -0.00000002  -0.00000637   0.00000000         -0.00     -0.94      0.00
   0.00000000   0.00000000   0.00000003          0.00      0.00      0.00


     number of scf cycles    =   4
     number of bfgs steps    =   3

     enthalpy old            =    -140.9384795049 Ry
     enthalpy new            =    -140.9403535691 Ry

     CASE: enthalpy_new < enthalpy_old

     new trust radius        =       0.0511908059 bohr
     new conv_thr            =       0.0000010000 Ry

     new unit-cell volume =  37039.68694 a.u.^3 (  5488.71525 Ang^3 )
     density =      0.28119 g/cm^3

CELL_PARAMETERS (alat= 33.68096681)
   0.998782719   0.000000687   0.000000000
  -0.499390764   0.864964238   0.000000000
   0.000000000   0.000000000   1.122132950

ATOMIC_POSITIONS (angstrom)
Al      -0.005464698   2.566225887   0.000000000
Al       2.243589759   1.290045980   0.000000000
Al      -2.225136342   6.413792660   0.000000000
Al       0.013744882   5.152203257   0.000000000
Al      -4.446446605  10.280066489   0.000000000
Al      -2.225138261   8.989558722   0.000000000
Al      -6.683908557  14.136731450   0.000000000
Al      -4.453275738  12.848717971   0.000000000
Al       4.453527548   2.562106860   0.000000000
Al       6.675580529   1.288596339   0.000000000
Al       2.220518745   6.429913647   0.000000000
Al       4.506769080   5.171533337   0.000000000
Al      -0.003846691  10.280071059   0.000000000
Al       2.228651114   8.991078399   0.000000000
Al      -2.225151587  14.127417631   0.000000000
Al       0.003065613  12.848754118   0.000000000
Al       8.897676401   2.562095492   0.000000000
Al      11.107643412   1.290026325   0.000000000
Al       8.844424723   5.171562373   0.000000000
Al       4.442632905  10.278720196   0.000000000
Al       6.675595313   8.927981912   0.000000000
Al       2.233686612  14.136748634   0.000000000
Al       4.445782677  12.828471661   0.000000000
Al      13.356714094   2.566294965   0.000000000
Al      15.576357271   1.284838628   0.000000000
Al      11.130758172   6.429980352   0.000000000
Al      13.337502003   5.152208013   0.000000000
Al       8.908666097  10.278755059   0.000000000
Al      11.122625255   8.991124672   0.000000000
Al       6.675664478  14.138271116   0.000000000
Al       8.905451815  12.828474579   0.000000000



     Writing output data file 19al_planar_2x2_vcr.save/
     NEW-OLD atomic charge density approx. for the potential

     negative rho (up, down):  1.151E-06 0.000E+00
     extrapolated charge   92.90406, renormalised to   93.00000

     total cpu time spent up to now is     1404.5 secs

     Self-consistent Calculation

     iteration #  1     ecut=    80.00 Ry     beta= 0.40
     Davidson diagonalization with overlap
     ethr =  1.00E-06,  avg # of iterations =  6.0

     negative rho (up, down):  5.951E-07 0.000E+00

     total cpu time spent up to now is     1447.8 secs

     total energy              =    -140.94275886 Ry
     Harris-Foulkes estimate   =    -141.41835242 Ry
     estimated scf accuracy    <       0.00035587 Ry

     iteration #  2     ecut=    80.00 Ry     beta= 0.40
     Davidson diagonalization with overlap
     ethr =  3.83E-07,  avg # of iterations =  6.0

     negative rho (up, down):  5.355E-07 0.000E+00

     total cpu time spent up to now is     1480.6 secs

     total energy              =    -140.94276384 Ry
     Harris-Foulkes estimate   =    -140.94321458 Ry
     estimated scf accuracy    <       0.00338864 Ry

     iteration #  3     ecut=    80.00 Ry     beta= 0.40
     Davidson diagonalization with overlap
     ethr =  3.83E-07,  avg # of iterations =  4.0

     negative rho (up, down):  3.585E-07 0.000E+00

     total cpu time spent up to now is     1506.7 secs

     total energy              =    -140.94296820 Ry
     Harris-Foulkes estimate   =    -140.94299398 Ry
     estimated scf accuracy    <       0.00011628 Ry

     iteration #  4     ecut=    80.00 Ry     beta= 0.40
     Davidson diagonalization with overlap
     ethr =  1.25E-07,  avg # of iterations =  3.0

     negative rho (up, down):  2.682E-07 0.000E+00

     total cpu time spent up to now is     1528.4 secs

     total energy              =    -140.94296528 Ry
     Harris-Foulkes estimate   =    -140.94298192 Ry
     estimated scf accuracy    <       0.00007096 Ry

     iteration #  5     ecut=    80.00 Ry     beta= 0.40
     Davidson diagonalization with overlap
     ethr =  7.63E-08,  avg # of iterations =  2.0

     negative rho (up, down):  7.959E-08 0.000E+00

     total cpu time spent up to now is     1549.9 secs

     total energy              =    -140.94296552 Ry
     Harris-Foulkes estimate   =    -140.94298572 Ry
     estimated scf accuracy    <       0.00012716 Ry

     iteration #  6     ecut=    80.00 Ry     beta= 0.40
     Davidson diagonalization with overlap
     ethr =  7.63E-08,  avg # of iterations =  3.0

     negative rho (up, down):  3.336E-08 0.000E+00

     total cpu time spent up to now is     1573.7 secs

     total energy              =    -140.94297582 Ry
     Harris-Foulkes estimate   =    -140.94297688 Ry
     estimated scf accuracy    <       0.00000703 Ry

     iteration #  7     ecut=    80.00 Ry     beta= 0.40
     Davidson diagonalization with overlap
     ethr =  7.56E-09,  avg # of iterations =  5.0

     negative rho (up, down):  2.749E-08 0.000E+00

     total cpu time spent up to now is     1602.6 secs

     total energy              =    -140.94297678 Ry
     Harris-Foulkes estimate   =    -140.94297773 Ry
     estimated scf accuracy    <       0.00000725 Ry

     iteration #  8     ecut=    80.00 Ry     beta= 0.40
     Davidson diagonalization with overlap
     ethr =  7.56E-09,  avg # of iterations =  2.0

     negative rho (up, down):  1.027E-08 0.000E+00

     total cpu time spent up to now is     1624.6 secs

     total energy              =    -140.94297678 Ry
     Harris-Foulkes estimate   =    -140.94297725 Ry
     estimated scf accuracy    <       0.00000192 Ry

     iteration #  9     ecut=    80.00 Ry     beta= 0.40
     Davidson diagonalization with overlap
     ethr =  2.06E-09,  avg # of iterations =  5.0

     total cpu time spent up to now is     1649.6 secs

     total energy              =    -140.94297694 Ry
     Harris-Foulkes estimate   =    -140.94297704 Ry
     estimated scf accuracy    <       0.00000108 Ry

     iteration # 10     ecut=    80.00 Ry     beta= 0.40
     Davidson diagonalization with overlap
     ethr =  1.16E-09,  avg # of iterations =  4.0

     total cpu time spent up to now is     1673.7 secs

     total energy              =    -140.94297675 Ry
     Harris-Foulkes estimate   =    -140.94297693 Ry
     estimated scf accuracy    <       0.00000133 Ry

     iteration # 11     ecut=    80.00 Ry     beta= 0.40
     Davidson diagonalization with overlap
     ethr =  1.16E-09,  avg # of iterations =  1.0

     total cpu time spent up to now is     1694.7 secs

     End of self-consistent calculation

          k = 0.0000 0.0000 0.0000 (448403 PWs)   bands (ev):

    -9.9565  -9.4508  -9.4434  -9.4433  -9.4165  -9.4164  -9.1342  -8.4015
    -8.4014  -8.3982  -8.3672  -8.3672  -8.3132  -8.2350  -8.2349  -7.5796
    -6.9327  -6.9326  -6.8233  -6.4773  -6.4772  -6.4585  -6.3816  -6.3815
    -5.5048  -4.8240  -4.8177  -4.8175  -4.7376  -4.7375  -4.4683  -4.4611
    -4.4447  -4.4447  -4.1433  -4.1431  -3.9790  -3.4710  -3.4686  -3.4684
    -3.4549  -3.4548  -3.3872  -3.2897  -3.2644  -3.2643  -3.2156  -2.9601
    -2.9510  -2.9510  -2.9353  -2.5006  -2.5005  -2.4445  -2.4285  -2.4274

     the Fermi energy is    -3.0891 ev

!    total energy              =    -140.94297655 Ry
     Harris-Foulkes estimate   =    -140.94297677 Ry
     estimated scf accuracy    <       0.00000029 Ry

     The total energy is the sum of the following terms:

     one-electron contribution =    -502.78778007 Ry
     hartree contribution      =     260.13414881 Ry
     xc contribution           =     -61.32325235 Ry
     ewald contribution        =     163.11179217 Ry
     smearing contrib. (-TS)   =      -0.07788512 Ry

     convergence has been achieved in  11 iterations

     Forces acting on atoms (cartesian axes, Ry/au):

     atom    1 type  1   force =     0.00105266    0.00057748    0.00000000
     atom    2 type  1   force =     0.00006572    0.00094924    0.00000000
     atom    3 type  1   force =    -0.00001128   -0.00207495    0.00000000
     atom    4 type  1   force =     0.00086255   -0.00037765    0.00000000
     atom    5 type  1   force =    -0.00012502   -0.00002620    0.00000000
     atom    6 type  1   force =     0.00004169   -0.00190020    0.00000000
     atom    7 type  1   force =    -0.00179908    0.00104227    0.00000000
     atom    8 type  1   force =    -0.00159734    0.00094062    0.00000000
     atom    9 type  1   force =     0.00099450    0.00517596    0.00000000
     atom   10 type  1   force =     0.00002269   -0.00079484    0.00000000
     atom   11 type  1   force =     0.00499242   -0.00173222    0.00000000
     atom   12 type  1   force =     0.01286984    0.00745810    0.00000000
     atom   13 type  1   force =     0.00007470   -0.00004404    0.00000000
     atom   14 type  1   force =    -0.00067851    0.00039461    0.00000000
     atom   15 type  1   force =    -0.00004155    0.00010205    0.00000000
     atom   16 type  1   force =     0.00163809    0.00090862    0.00000000
     atom   17 type  1   force =    -0.00104649    0.00519090    0.00000000
     atom   18 type  1   force =    -0.00004716    0.00091751    0.00000000
     atom   19 type  1   force =    -0.01288640    0.00743840    0.00000000
     atom   20 type  1   force =     0.00399277   -0.00347453    0.00000000
     atom   21 type  1   force =    -0.00002439   -0.01487805    0.00000000
     atom   22 type  1   force =     0.00180277    0.00105162    0.00000000
     atom   23 type  1   force =     0.00077291   -0.00054079    0.00000000
     atom   24 type  1   force =    -0.00104879    0.00059155    0.00000000
     atom   25 type  1   force =     0.00000448    0.00000284    0.00000000
     atom   26 type  1   force =    -0.00500628   -0.00170401    0.00000000
     atom   27 type  1   force =    -0.00082140   -0.00039081    0.00000000
     atom   28 type  1   force =    -0.00398185   -0.00345852    0.00000000
     atom   29 type  1   force =     0.00070122    0.00038991    0.00000000
     atom   30 type  1   force =     0.00001832   -0.00121174    0.00000000
     atom   31 type  1   force =    -0.00079178   -0.00052314    0.00000000

     Total force =     0.029439     Total SCF correction =     0.000423


     Computing stress (Cartesian axis) and pressure

          total   stress  (Ry/bohr**3)                   (kbar)     P=   -0.66
  -0.00000666  -0.00000002   0.00000000         -0.98     -0.00      0.00
  -0.00000002  -0.00000673   0.00000000         -0.00     -0.99      0.00
   0.00000000   0.00000000  -0.00000000          0.00      0.00     -0.00


     number of scf cycles    =   5
     number of bfgs steps    =   4

     enthalpy old            =    -140.9403535691 Ry
     enthalpy new            =    -140.9429765491 Ry

     CASE: enthalpy_new < enthalpy_old

     new trust radius        =       0.0767466775 bohr
     new conv_thr            =       0.0000010000 Ry

     new unit-cell volume =  36981.99214 a.u.^3 (  5480.16576 Ang^3 )
     density =      0.28163 g/cm^3

CELL_PARAMETERS (alat= 33.68096681)
   0.998007247   0.000000533   0.000000000
  -0.499003162   0.864288053   0.000000000
   0.000000000   0.000000000   1.122132950

ATOMIC_POSITIONS (angstrom)
Al      -0.007744954   2.562850300   0.000000000
Al       2.251261931   1.292211255   0.000000000
Al      -2.223397458   6.402772229   0.000000000
Al       0.021140199   5.154816961   0.000000000
Al      -4.441042937  10.273231231   0.000000000
Al      -2.223396860   8.979860026   0.000000000
Al      -6.683869774  14.128683552   0.000000000
Al      -4.452103672  12.839932504   0.000000000
Al       4.452141155   2.558899539   0.000000000
Al       6.670391576   1.289192265   0.000000000
Al       2.218848033   6.427244903   0.000000000
Al       4.538350542   5.187825260   0.000000000
Al      -0.005804074  10.273218164   0.000000000
Al       2.228338179   8.983246586   0.000000000
Al      -2.223449065  14.114137625   0.000000000
Al       0.005381963  12.839967897   0.000000000
Al       8.888677528   2.558880186   0.000000000
Al      11.089616927   1.292141072   0.000000000
Al       8.802436435   5.187849118   0.000000000
Al       4.437184659  10.269482951   0.000000000
Al       6.670374422   8.880492115   0.000000000
Al       2.237136238  14.128692585   0.000000000
Al       4.440300286  12.808633605   0.000000000
Al      13.348658164   2.562930185   0.000000000
Al      15.564241569   1.283857051   0.000000000
Al      11.122072504   6.427339903   0.000000000
Al      13.319755158   5.154785969   0.000000000
Al       8.903770674  10.269524177   0.000000000
Al      11.112565920   8.983290036   0.000000000
Al       6.670493138  14.129893845   0.000000000
Al       8.900505182  12.808633251   0.000000000



     Writing output data file 19al_planar_2x2_vcr.save/
     NEW-OLD atomic charge density approx. for the potential

     negative rho (up, down):  1.733E-06 0.000E+00
     extrapolated charge   92.85503, renormalised to   93.00000

     total cpu time spent up to now is     1767.5 secs

     Self-consistent Calculation

     iteration #  1     ecut=    80.00 Ry     beta= 0.40
     Davidson diagonalization with overlap
     ethr =  1.00E-06,  avg # of iterations =  8.0

     negative rho (up, down):  9.093E-07 0.000E+00

     total cpu time spent up to now is     1808.0 secs

     total energy              =    -140.94624190 Ry
     Harris-Foulkes estimate   =    -141.66569900 Ry
     estimated scf accuracy    <       0.00073349 Ry

     iteration #  2     ecut=    80.00 Ry     beta= 0.40
     Davidson diagonalization with overlap
     ethr =  7.89E-07,  avg # of iterations =  5.0

     negative rho (up, down):  8.152E-07 0.000E+00

     total cpu time spent up to now is     1838.4 secs

     total energy              =    -140.94631147 Ry
     Harris-Foulkes estimate   =    -140.94720752 Ry
     estimated scf accuracy    <       0.00652175 Ry

     iteration #  3     ecut=    80.00 Ry     beta= 0.40
     Davidson diagonalization with overlap
     ethr =  7.89E-07,  avg # of iterations =  7.0

     negative rho (up, down):  5.577E-07 0.000E+00

     total cpu time spent up to now is     1866.0 secs

     total energy              =    -140.94671113 Ry
     Harris-Foulkes estimate   =    -140.94675990 Ry
     estimated scf accuracy    <       0.00022603 Ry

     iteration #  4     ecut=    80.00 Ry     beta= 0.40
     Davidson diagonalization with overlap
     ethr =  2.43E-07,  avg # of iterations =  2.0

     negative rho (up, down):  3.099E-07 0.000E+00

     total cpu time spent up to now is     1888.5 secs

     total energy              =    -140.94670966 Ry
     Harris-Foulkes estimate   =    -140.94673126 Ry
     estimated scf accuracy    <       0.00010870 Ry

     iteration #  5     ecut=    80.00 Ry     beta= 0.40
     Davidson diagonalization with overlap
     ethr =  1.17E-07,  avg # of iterations =  5.0

     negative rho (up, down):  1.434E-07 0.000E+00

     total cpu time spent up to now is     1913.8 secs

     total energy              =    -140.94668853 Ry
     Harris-Foulkes estimate   =    -140.94674661 Ry
     estimated scf accuracy    <       0.00038531 Ry

     iteration #  6     ecut=    80.00 Ry     beta= 0.40
     Davidson diagonalization with overlap
     ethr =  1.17E-07,  avg # of iterations =  4.0

     negative rho (up, down):  5.300E-08 0.000E+00

     total cpu time spent up to now is     1937.0 secs

     total energy              =    -140.94671740 Ry
     Harris-Foulkes estimate   =    -140.94672255 Ry
     estimated scf accuracy    <       0.00003309 Ry

     iteration #  7     ecut=    80.00 Ry     beta= 0.40
     Davidson diagonalization with overlap
     ethr =  3.56E-08,  avg # of iterations =  4.0

     negative rho (up, down):  3.753E-08 0.000E+00

     total cpu time spent up to now is     1958.8 secs

     total energy              =    -140.94671989 Ry
     Harris-Foulkes estimate   =    -140.94672155 Ry
     estimated scf accuracy    <       0.00000927 Ry

     iteration #  8     ecut=    80.00 Ry     beta= 0.40
     Davidson diagonalization with overlap
     ethr =  9.97E-09,  avg # of iterations =  3.0

     total cpu time spent up to now is     1983.8 secs

     total energy              =    -140.94672062 Ry
     Harris-Foulkes estimate   =    -140.94672161 Ry
     estimated scf accuracy    <       0.00000562 Ry

     iteration #  9     ecut=    80.00 Ry     beta= 0.40
     Davidson diagonalization with overlap
     ethr =  6.05E-09,  avg # of iterations =  3.0

     total cpu time spent up to now is     2007.5 secs

     total energy              =    -140.94672070 Ry
     Harris-Foulkes estimate   =    -140.94672118 Ry
     estimated scf accuracy    <       0.00000357 Ry

     iteration # 10     ecut=    80.00 Ry     beta= 0.40
     Davidson diagonalization with overlap
     ethr =  3.83E-09,  avg # of iterations =  1.0

     total cpu time spent up to now is     2029.5 secs

     total energy              =    -140.94672070 Ry
     Harris-Foulkes estimate   =    -140.94672093 Ry
     estimated scf accuracy    <       0.00000176 Ry

     iteration # 11     ecut=    80.00 Ry     beta= 0.40
     Davidson diagonalization with overlap
     ethr =  1.89E-09,  avg # of iterations =  1.0

     total cpu time spent up to now is     2050.3 secs

     End of self-consistent calculation

          k = 0.0000 0.0000 0.0000 (448403 PWs)   bands (ev):

    -9.9593  -9.4530  -9.4504  -9.4502  -9.4110  -9.4108  -9.1297  -8.4064
    -8.4011  -8.4011  -8.3597  -8.3595  -8.3180  -8.2191  -8.2190  -7.5779
    -6.9337  -6.9336  -6.8251  -6.4763  -6.4762  -6.4441  -6.3857  -6.3856
    -5.5294  -4.8172  -4.8054  -4.8052  -4.7355  -4.7355  -4.4635  -4.4570
    -4.4459  -4.4459  -4.1559  -4.1558  -3.9801  -3.4719  -3.4718  -3.4714
    -3.4500  -3.4498  -3.3779  -3.3418  -3.2587  -3.2586  -3.2133  -2.9657
    -2.9424  -2.9423  -2.9160  -2.4907  -2.4905  -2.4499  -2.4189  -2.4177

     the Fermi energy is    -3.0879 ev

!    total energy              =    -140.94672042 Ry
     Harris-Foulkes estimate   =    -140.94672070 Ry
     estimated scf accuracy    <       0.00000034 Ry

     The total energy is the sum of the following terms:

     one-electron contribution =    -503.27813496 Ry
     hartree contribution      =     260.37646413 Ry
     xc contribution           =     -61.31730834 Ry
     ewald contribution        =     163.34772269 Ry
     smearing contrib. (-TS)   =      -0.07546394 Ry

     convergence has been achieved in  11 iterations

     Forces acting on atoms (cartesian axes, Ry/au):

     atom    1 type  1   force =     0.00237942    0.00131534    0.00000000
     atom    2 type  1   force =    -0.00239019    0.00069259    0.00000000
     atom    3 type  1   force =    -0.00002773   -0.00202032    0.00000000
     atom    4 type  1   force =    -0.00058544   -0.00235264    0.00000000
     atom    5 type  1   force =    -0.00073553   -0.00028591    0.00000000
     atom    6 type  1   force =     0.00008549   -0.00252356    0.00000000
     atom    7 type  1   force =    -0.00175409    0.00099816    0.00000000
     atom    8 type  1   force =    -0.00213950    0.00120106    0.00000000
     atom    9 type  1   force =     0.00121526    0.00936882    0.00000000
     atom   10 type  1   force =     0.00002809   -0.00175095    0.00000000
     atom   11 type  1   force =     0.00876639   -0.00364106    0.00000000
     atom   12 type  1   force =     0.01310918    0.00763140    0.00000000
     atom   13 type  1   force =     0.00061558   -0.00033378    0.00000000
     atom   14 type  1   force =    -0.00150184    0.00085957    0.00000000
     atom   15 type  1   force =    -0.00007795    0.00076046    0.00000000
     atom   16 type  1   force =     0.00221128    0.00117272    0.00000000
     atom   17 type  1   force =    -0.00129242    0.00940874    0.00000000
     atom   18 type  1   force =     0.00242586    0.00062762    0.00000000
     atom   19 type  1   force =    -0.01314224    0.00759212    0.00000000
     atom   20 type  1   force =     0.00755747   -0.00578575    0.00000000
     atom   21 type  1   force =    -0.00002844   -0.01516003    0.00000000
     atom   22 type  1   force =     0.00174902    0.00103390    0.00000000
     atom   23 type  1   force =     0.00177072    0.00171676    0.00000000
     atom   24 type  1   force =    -0.00237659    0.00134259    0.00000000
     atom   25 type  1   force =     0.00001181   -0.00000085    0.00000000
     atom   26 type  1   force =    -0.00877639   -0.00358282    0.00000000
     atom   27 type  1   force =     0.00065506   -0.00236959    0.00000000
     atom   28 type  1   force =    -0.00753057   -0.00575565    0.00000000
     atom   29 type  1   force =     0.00154101    0.00085826    0.00000000
     atom   30 type  1   force =     0.00003753   -0.00274787    0.00000000
     atom   31 type  1   force =    -0.00180024    0.00173068    0.00000000

     Total force =     0.036483     Total SCF correction =     0.000478


     Computing stress (Cartesian axis) and pressure

          total   stress  (Ry/bohr**3)                   (kbar)     P=   -0.70
  -0.00000713  -0.00000005   0.00000000         -1.05     -0.01      0.00
  -0.00000005  -0.00000724   0.00000000         -0.01     -1.07      0.00
   0.00000000   0.00000000   0.00000001          0.00      0.00      0.00


     number of scf cycles    =   6
     number of bfgs steps    =   5

     enthalpy old            =    -140.9429765491 Ry
     enthalpy new            =    -140.9467204175 Ry

     CASE: enthalpy_new < enthalpy_old

     new trust radius        =       0.1150304938 bohr
     new conv_thr            =       0.0000010000 Ry

     new unit-cell volume =  36895.23474 a.u.^3 (  5467.30964 Ang^3 )
     density =      0.28229 g/cm^3

CELL_PARAMETERS (alat= 33.68096681)
   0.996840533  -0.000000102   0.000000000
  -0.498420355   0.863270005   0.000000000
   0.000000000   0.000000000   1.122132950

ATOMIC_POSITIONS (angstrom)
Al      -0.010732167   2.558011795   0.000000000
Al       2.261891686   1.295312421   0.000000000
Al      -2.220790667   6.386265296   0.000000000
Al       0.031671930   5.158041300   0.000000000
Al      -4.433137830  10.262864809   0.000000000
Al      -2.220761612   8.965103459   0.000000000
Al      -6.683745469  14.116510855   0.000000000
Al      -4.450490693  12.826746506   0.000000000
Al       4.450116011   2.555484634   0.000000000
Al       6.662582190   1.289770348   0.000000000
Al       2.217609354   6.422564393   0.000000000
Al       4.585589535   5.212191851   0.000000000
Al      -0.008564366  10.262806649   0.000000000
Al       2.227593969   8.971602086   0.000000000
Al      -2.220909097  14.094379739   0.000000000
Al       0.009019242  12.826787724   0.000000000
Al       8.875070440   2.555464021   0.000000000
Al      11.063414485   1.295145619   0.000000000
Al       8.739526950   5.212198069   0.000000000
Al       4.430208997  10.254803085   0.000000000
Al       6.662516666   8.809347428   0.000000000
Al       2.242245843  14.116518223   0.000000000
Al       4.432364356  12.779638663   0.000000000
Al      13.336092877   2.558107403   0.000000000
Al      15.546015501   1.282370695   0.000000000
Al      11.107729722   6.422712614   0.000000000
Al      13.293655592   5.157950648   0.000000000
Al       8.895184822  10.254856965   0.000000000
Al      11.097702013   8.971640744   0.000000000
Al       6.662715541  14.116757463   0.000000000
Al       8.892734404  12.779625531   0.000000000



     Writing output data file 19al_planar_2x2_vcr.save/
     NEW-OLD atomic charge density approx. for the potential

     negative rho (up, down):  2.658E-06 0.000E+00
     extrapolated charge   92.78149, renormalised to   93.00000

     total cpu time spent up to now is     2127.9 secs

     Self-consistent Calculation

     iteration #  1     ecut=    80.00 Ry     beta= 0.40
     Davidson diagonalization with overlap
     ethr =  1.00E-06,  avg # of iterations = 13.0

     negative rho (up, down):  1.425E-06 0.000E+00

     total cpu time spent up to now is     2177.4 secs

     total energy              =    -140.95102274 Ry
     Harris-Foulkes estimate   =    -142.03734777 Ry
     estimated scf accuracy    <       0.00162744 Ry

     iteration #  2     ecut=    80.00 Ry     beta= 0.40
     Davidson diagonalization with overlap
     ethr =  1.75E-06,  avg # of iterations = 19.0

     negative rho (up, down):  1.286E-06 0.000E+00

     total cpu time spent up to now is     2217.8 secs

     total energy              =    -140.95092158 Ry
     Harris-Foulkes estimate   =    -140.95319036 Ry
     estimated scf accuracy    <       0.01698402 Ry

     iteration #  3     ecut=    80.00 Ry     beta= 0.40
     Davidson diagonalization with overlap
     ethr =  1.75E-06,  avg # of iterations =  4.0

     negative rho (up, down):  9.316E-07 0.000E+00

     total cpu time spent up to now is     2242.5 secs

     total energy              =    -140.95189955 Ry
     Harris-Foulkes estimate   =    -140.95203886 Ry
     estimated scf accuracy    <       0.00064261 Ry

     iteration #  4     ecut=    80.00 Ry     beta= 0.40
     Davidson diagonalization with overlap
     ethr =  6.91E-07,  avg # of iterations =  2.0

     negative rho (up, down):  5.837E-07 0.000E+00

     total cpu time spent up to now is     2263.1 secs

     total energy              =    -140.95190735 Ry
     Harris-Foulkes estimate   =    -140.95196075 Ry
     estimated scf accuracy    <       0.00032889 Ry

     iteration #  5     ecut=    80.00 Ry     beta= 0.40
     Davidson diagonalization with overlap
     ethr =  3.54E-07,  avg # of iterations =  7.0

     negative rho (up, down):  3.479E-07 0.000E+00

     total cpu time spent up to now is     2284.9 secs

     total energy              =    -140.95187125 Ry
     Harris-Foulkes estimate   =    -140.95195861 Ry
     estimated scf accuracy    <       0.00046583 Ry

     iteration #  6     ecut=    80.00 Ry     beta= 0.40
     Davidson diagonalization with overlap
     ethr =  3.54E-07,  avg # of iterations =  3.0

     negative rho (up, down):  7.381E-08 0.000E+00

     total cpu time spent up to now is     2305.5 secs

     total energy              =    -140.95191053 Ry
     Harris-Foulkes estimate   =    -140.95193501 Ry
     estimated scf accuracy    <       0.00015845 Ry

     iteration #  7     ecut=    80.00 Ry     beta= 0.40
     Davidson diagonalization with overlap
     ethr =  1.70E-07,  avg # of iterations =  1.0

     negative rho (up, down):  5.301E-08 0.000E+00

     total cpu time spent up to now is     2326.4 secs

     total energy              =    -140.95192381 Ry
     Harris-Foulkes estimate   =    -140.95192725 Ry
     estimated scf accuracy    <       0.00001793 Ry

     iteration #  8     ecut=    80.00 Ry     beta= 0.40
     Davidson diagonalization with overlap
     ethr =  1.93E-08,  avg # of iterations =  4.0

     negative rho (up, down):  2.881E-08 0.000E+00

     total cpu time spent up to now is     2355.7 secs

     total energy              =    -140.95192721 Ry
     Harris-Foulkes estimate   =    -140.95193072 Ry
     estimated scf accuracy    <       0.00002226 Ry

     iteration #  9     ecut=    80.00 Ry     beta= 0.40
     Davidson diagonalization with overlap
     ethr =  1.93E-08,  avg # of iterations =  2.0

     total cpu time spent up to now is     2376.7 secs

     total energy              =    -140.95192774 Ry
     Harris-Foulkes estimate   =    -140.95192883 Ry
     estimated scf accuracy    <       0.00000504 Ry

     iteration # 10     ecut=    80.00 Ry     beta= 0.40
     Davidson diagonalization with overlap
     ethr =  5.41E-09,  avg # of iterations =  4.0

     total cpu time spent up to now is     2401.1 secs

     total energy              =    -140.95192767 Ry
     Harris-Foulkes estimate   =    -140.95192890 Ry
     estimated scf accuracy    <       0.00000944 Ry

     iteration # 11     ecut=    80.00 Ry     beta= 0.40
     Davidson diagonalization with overlap
     ethr =  5.41E-09,  avg # of iterations =  2.0

     total cpu time spent up to now is     2422.5 secs

     total energy              =    -140.95192784 Ry
     Harris-Foulkes estimate   =    -140.95192824 Ry
     estimated scf accuracy    <       0.00000180 Ry

     iteration # 12     ecut=    80.00 Ry     beta= 0.40
     Davidson diagonalization with overlap
     ethr =  1.94E-09,  avg # of iterations =  5.0

     total cpu time spent up to now is     2445.7 secs

     End of self-consistent calculation

          k = 0.0000 0.0000 0.0000 (448403 PWs)   bands (ev):

    -9.9647  -9.4614  -9.4611  -9.4568  -9.4055  -9.4052  -9.1265  -8.4191
    -8.4042  -8.4040  -8.3505  -8.3504  -8.3254  -8.1938  -8.1935  -7.5794
    -6.9367  -6.9365  -6.8306  -6.4755  -6.4753  -6.4253  -6.3907  -6.3906
    -5.5675  -4.8094  -4.7927  -4.7923  -4.7295  -4.7294  -4.4571  -4.4513
    -4.4491  -4.4491  -4.1758  -4.1754  -3.9824  -3.4776  -3.4774  -3.4723
    -3.4440  -3.4438  -3.4230  -3.3639  -3.2523  -3.2522  -3.2125  -2.9755
    -2.9299  -2.9298  -2.8857  -2.4784  -2.4779  -2.4581  -2.4398  -2.4394

     the Fermi energy is    -3.0876 ev

!    total energy              =    -140.95192745 Ry
     Harris-Foulkes estimate   =    -140.95192816 Ry
     estimated scf accuracy    <       0.00000079 Ry

     The total energy is the sum of the following terms:

     one-electron contribution =    -504.02893367 Ry
     hartree contribution      =     260.74275291 Ry
     xc contribution           =     -61.30902944 Ry
     ewald contribution        =     163.71576146 Ry
     smearing contrib. (-TS)   =      -0.07247872 Ry

     convergence has been achieved in  12 iterations

     Forces acting on atoms (cartesian axes, Ry/au):

     atom    1 type  1   force =     0.00398940    0.00237109    0.00000000
     atom    2 type  1   force =    -0.00574380    0.00000849    0.00000000
     atom    3 type  1   force =    -0.00000375   -0.00251188    0.00000000
     atom    4 type  1   force =    -0.00279836   -0.00502326    0.00000000
     atom    5 type  1   force =    -0.00162998   -0.00109057    0.00000000
     atom    6 type  1   force =    -0.00001101   -0.00290587    0.00000000
     atom    7 type  1   force =    -0.00224483    0.00123565    0.00000000
     atom    8 type  1   force =    -0.00250997    0.00158972    0.00000000
     atom    9 type  1   force =     0.00154018    0.01541446    0.00000000
     atom   10 type  1   force =     0.00000001   -0.00351437    0.00000000
     atom   11 type  1   force =     0.01399732   -0.00632019    0.00000000
     atom   12 type  1   force =     0.01338774    0.00764813    0.00000000
     atom   13 type  1   force =     0.00167390   -0.00106743    0.00000000
     atom   14 type  1   force =    -0.00308159    0.00179265    0.00000000
     atom   15 type  1   force =     0.00004631    0.00180049    0.00000000
     atom   16 type  1   force =     0.00246946    0.00158181    0.00000000
     atom   17 type  1   force =    -0.00151843    0.01539673    0.00000000
     atom   18 type  1   force =     0.00572652    0.00006616    0.00000000
     atom   19 type  1   force =    -0.01337331    0.00766235    0.00000000
     atom   20 type  1   force =     0.01246660   -0.00908925    0.00000000
     atom   21 type  1   force =     0.00002999   -0.01543103    0.00000000
     atom   22 type  1   force =     0.00219759    0.00121237    0.00000000
     atom   23 type  1   force =     0.00291566    0.00505859    0.00000000
     atom   24 type  1   force =    -0.00402618    0.00235494    0.00000000
     atom   25 type  1   force =     0.00002698    0.00001754    0.00000000
     atom   26 type  1   force =    -0.01399835   -0.00637549    0.00000000
     atom   27 type  1   force =     0.00278902   -0.00498260    0.00000000
     atom   28 type  1   force =    -0.01252674   -0.00911599    0.00000000
     atom   29 type  1   force =     0.00308240    0.00179953    0.00000000
     atom   30 type  1   force =    -0.00002732   -0.00468433    0.00000000
     atom   31 type  1   force =    -0.00284546    0.00510157    0.00000000

     Total force =     0.050021     Total SCF correction =     0.000723


     Computing stress (Cartesian axis) and pressure

          total   stress  (Ry/bohr**3)                   (kbar)     P=   -0.77
  -0.00000790  -0.00000001   0.00000000         -1.16     -0.00      0.00
  -0.00000001  -0.00000784   0.00000000         -0.00     -1.15      0.00
   0.00000000   0.00000000   0.00000001          0.00      0.00      0.00


     number of scf cycles    =   7
     number of bfgs steps    =   6

     enthalpy old            =    -140.9467204175 Ry
     enthalpy new            =    -140.9519274549 Ry

     CASE: enthalpy_new < enthalpy_old

     new trust radius        =       0.1723437226 bohr
     new conv_thr            =       0.0000010000 Ry

     new unit-cell volume =  36764.78512 a.u.^3 (  5447.97900 Ang^3 )
     density =      0.28329 g/cm^3

CELL_PARAMETERS (alat= 33.68096681)
   0.995080604   0.000000557   0.000000000
  -0.497539819   0.861738839   0.000000000
   0.000000000   0.000000000   1.122132950

ATOMIC_POSITIONS (angstrom)
Al      -0.014864612   2.551034482   0.000000000
Al       2.276858423   1.299589099   0.000000000
Al      -2.216825451   6.361170066   0.000000000
Al       0.046706387   5.162136542   0.000000000
Al      -4.421492024  10.246902269   0.000000000
Al      -2.216852977   8.943054819   0.000000000
Al      -6.683772561  14.098336142   0.000000000
Al      -4.447933999  12.806984646   0.000000000
Al       4.447130508   2.552110476   0.000000000
Al       6.650778885   1.290009712   0.000000000
Al       2.217188511   6.414766614   0.000000000
[...]


     Computing stress (Cartesian axis) and pressure

          total   stress  (Ry/bohr**3)                   (kbar)     P=   -0.00
  -0.00000002   0.00000001   0.00000000         -0.00      0.00      0.00
   0.00000001   0.00000002   0.00000000          0.00      0.00      0.00
   0.00000000   0.00000000  -0.00000001          0.00      0.00     -0.00


     bfgs converged in 244 scf cycles and 242 bfgs steps
     (criteria: energy <  1.0E-05 Ry, force <  1.0E-04Ry/Bohr, cell <  5.0E-05kbar)

     End of BFGS Geometry Optimization

     Final enthalpy =    -142.2701674735 Ry
Begin final coordinates
     new unit-cell volume =  26092.83352 a.u.^3 (  3866.55896 Ang^3 )
     density =      0.39916 g/cm^3

CELL_PARAMETERS (alat= 33.68096681)
   0.838298896   0.000444781   0.000000000
  -0.419539489   0.725756950   0.000000000
   0.000000000   0.000000000   1.122132950

ATOMIC_POSITIONS (angstrom)
Al       1.504803520   2.748595221   0.000000000
Al       2.469978946   0.244751767   0.000000000
Al      -1.146197528   3.164706482   0.000000000
Al       0.539598398   5.252508561   0.000000000
Al      -3.076907580   8.172481286   0.000000000
Al      -2.111476817   5.668640825   0.000000000
Al      -6.693483344  11.092251419   0.000000000
Al      -4.042299113  10.676224753   0.000000000
Al       4.155840076   2.332692903   0.000000000
Al       5.121056201  -0.171154223   0.000000000
Al       2.225185293   7.340474308   0.000000000
Al       3.190607641   4.836548728   0.000000000
Al      -0.425806450   7.756480071   0.000000000
Al       1.259916596   9.844475989   0.000000000
Al      -1.391146192  10.260352918   0.000000000
Al       0.294589452  12.348348772   0.000000000
Al       6.806915755   1.916856933   0.000000000
Al       9.458054317   1.500853078   0.000000000
Al       5.841692892   4.420646545   0.000000000
Al       3.910877866   9.428334125   0.000000000
Al       4.876228999   6.924445231   0.000000000
Al       4.631569436  14.020110907   0.000000000
Al       2.945613089  11.932309093   0.000000000
Al      11.143937593   3.588705102   0.000000000
Al      14.760060434   0.668703680   0.000000000
Al       7.527328948   6.508493444   0.000000000
Al       8.492828138   4.004672594   0.000000000
Al       6.561907353   9.012263000   0.000000000
Al      10.178513364   6.092515256   0.000000000
Al       5.596603935  11.516183529   0.000000000
Al       9.213052781   8.596361693   0.000000000
End final coordinates



     Writing output data file 19al_planar_2x2_vcr.save/

     A final scf calculation at the relaxed structure.
     The G-vectors are recalculated for the final unit cell
     Results may differ from those at the preceding step.
 
     Parallelization info
     --------------------
     sticks:   dense  smooth     PW     G-vecs:    dense   smooth      PW
     Min        2198    2198    550               315308   315308   39400
     Max        2199    2199    551               315317   315317   39405
     Sum       17587   17587   4405              2522493  2522493  315219
 


     bravais-lattice index     =            4
     lattice parameter (alat)  =      33.6810  a.u.
     unit-cell volume          =   26092.8335 (a.u.)^3
     number of atoms/cell      =           31
     number of atomic types    =            1
     number of electrons       =        93.00
     number of Kohn-Sham states=           56
     kinetic-energy cutoff     =      80.0000  Ry
     charge density cutoff     =     320.0000  Ry
     convergence threshold     =      1.0E-08
     mixing beta               =       0.4000
     number of iterations used =            8  plain     mixing
     Exchange-correlation      = PBE ( 1  4  3  4 0 0)

     celldm(1)=  33.680967  celldm(2)=   0.000000  celldm(3)=   1.122133
     celldm(4)=   0.000000  celldm(5)=   0.000000  celldm(6)=   0.000000

     crystal axes: (cart. coord. in units of alat)
               a(1) = (   0.838299   0.000445   0.000000 )  
               a(2) = (  -0.419539   0.725757   0.000000 )  
               a(3) = (   0.000000   0.000000   1.122133 )  

     reciprocal axes: (cart. coord. in units 2 pi/alat)
               b(1) = (  1.192526  0.689366  0.000000 )  
               b(2) = ( -0.000731  1.377449  0.000000 )  
               b(3) = (  0.000000  0.000000  0.891160 )  


     PseudoPot. # 1 for Al read from file:
     ./Al.upf
     MD5 check sum: 4974d48a734c9d7d1eb6780a1419d19d
     Pseudo is Norm-conserving + core correction, Zval =  3.0
     Generated using ONCVPSP code by D. R. Hamann
     Using radial grid of 1876 points,  6 beta functions with: 
                l(1) =   0
                l(2) =   0
                l(3) =   1
                l(4) =   1
                l(5) =   2
                l(6) =   2

     atomic species   valence    mass     pseudopotential
        Al             3.00    29.98200     Al( 1.00)

      2 Sym. Ops. (no inversion) found



   Cartesian axes

     site n.     atom                  positions (alat units)
         1           Al  tau(   1) = (   0.0844295   0.1542145   0.0000000  )
         2           Al  tau(   2) = (   0.1385822   0.0137322   0.0000000  )
         3           Al  tau(   3) = (  -0.0643093   0.1775611   0.0000000  )
         4           Al  tau(   4) = (   0.0302751   0.2947006   0.0000000  )
         5           Al  tau(   5) = (  -0.1726350   0.4585305   0.0000000  )
         6           Al  tau(   6) = (  -0.1184679   0.3180484   0.0000000  )
         7           Al  tau(   7) = (  -0.3755489   0.6223490   0.0000000  )
         8           Al  tau(   8) = (  -0.2267999   0.5990072   0.0000000  )
         9           Al  tau(   9) = (   0.2331703   0.1308796   0.0000000  )
        10           Al  tau(  10) = (   0.2873253  -0.0096029   0.0000000  )
        11           Al  tau(  11) = (   0.1248477   0.4118494   0.0000000  )
        12           Al  tau(  12) = (   0.1790143   0.2713625   0.0000000  )
        13           Al  tau(  13) = (  -0.0238906   0.4351901   0.0000000  )
        14           Al  tau(  14) = (   0.0706897   0.5523405   0.0000000  )
        15           Al  tau(  15) = (  -0.0780525   0.5756740   0.0000000  )
        16           Al  tau(  16) = (   0.0165284   0.6928245   0.0000000  )
        17           Al  tau(  17) = (   0.3819132   0.1075484   0.0000000  )
        18           Al  tau(  18) = (   0.5306597   0.0842078   0.0000000  )
        19           Al  tau(  19) = (   0.3277578   0.2480277   0.0000000  )
        20           Al  tau(  20) = (   0.2194262   0.5289922   0.0000000  )
        21           Al  tau(  21) = (   0.2735889   0.3885074   0.0000000  )
        22           Al  tau(  22) = (   0.2598618   0.7866214   0.0000000  )
        23           Al  tau(  23) = (   0.1652685   0.6694819   0.0000000  )
        24           Al  tau(  24) = (   0.6252490   0.2013502   0.0000000  )
        25           Al  tau(  25) = (   0.8281375   0.0375187   0.0000000  )
        26           Al  tau(  26) = (   0.4223332   0.3651697   0.0000000  )
        27           Al  tau(  27) = (   0.4765041   0.2246888   0.0000000  )
        28           Al  tau(  28) = (   0.3681666   0.5056479   0.0000000  )
        29           Al  tau(  29) = (   0.5710823   0.3418306   0.0000000  )
        30           Al  tau(  30) = (   0.3140067   0.6461344   0.0000000  )
        31           Al  tau(  31) = (   0.5169135   0.4823130   0.0000000  )

     number of k points=     1  Methfessel-Paxton smearing, width (Ry)=  0.0500
                       cart. coord. in units 2pi/alat
        k(    1) = (   0.0000000   0.0000000   0.0000000), wk =   2.0000000

     Dense  grid:  2522493 G-vectors     FFT dimensions: ( 162, 162, 216)

     Estimated max dynamical RAM per process >     839.96 MB

     Estimated total dynamical RAM >       6.56 GB

     Initial potential from superposition of free atoms

     starting charge   92.92414, renormalised to   93.00000

     negative rho (up, down):  7.270E-05 0.000E+00
     Starting wfcs are  124 randomized atomic wfcs

     total cpu time spent up to now is    86279.0 secs

     Self-consistent Calculation

     iteration #  1     ecut=    80.00 Ry     beta= 0.40
     Davidson diagonalization with overlap
     ethr =  1.00E-06,  avg # of iterations =  9.0

     negative rho (up, down):  1.174E-05 0.000E+00

     total cpu time spent up to now is    86324.3 secs

     total energy              =    -142.21848340 Ry
     Harris-Foulkes estimate   =    -142.58378482 Ry
     estimated scf accuracy    <       1.01217642 Ry

     iteration #  2     ecut=    80.00 Ry     beta= 0.40
     Davidson diagonalization with overlap
     ethr =  1.09E-03,  avg # of iterations =  1.0

     negative rho (up, down):  3.419E-06 0.000E+00

     total cpu time spent up to now is    86339.3 secs

     total energy              =    -142.25980962 Ry
     Harris-Foulkes estimate   =    -142.29577034 Ry
     estimated scf accuracy    <       0.10990603 Ry

     iteration #  3     ecut=    80.00 Ry     beta= 0.40
     Davidson diagonalization with overlap
     ethr =  1.18E-04,  avg # of iterations =  1.0

     negative rho (up, down):  2.316E-07 0.000E+00

     total cpu time spent up to now is    86353.6 secs

     total energy              =    -142.26912855 Ry
     Harris-Foulkes estimate   =    -142.27101509 Ry
     estimated scf accuracy    <       0.00856043 Ry

     iteration #  4     ecut=    80.00 Ry     beta= 0.40
     Davidson diagonalization with overlap
     ethr =  9.20E-06,  avg # of iterations =  2.0

     negative rho (up, down):  7.126E-08 0.000E+00

     total cpu time spent up to now is    86367.6 secs

     total energy              =    -142.26976399 Ry
     Harris-Foulkes estimate   =    -142.26981348 Ry
     estimated scf accuracy    <       0.00013127 Ry

     iteration #  5     ecut=    80.00 Ry     beta= 0.40
     Davidson diagonalization with overlap
     ethr =  1.41E-07,  avg # of iterations =  5.0

     negative rho (up, down):  4.354E-08 0.000E+00

     total cpu time spent up to now is    86390.5 secs

     total energy              =    -142.26987430 Ry
     Harris-Foulkes estimate   =    -142.26989741 Ry
     estimated scf accuracy    <       0.00011147 Ry

     iteration #  6     ecut=    80.00 Ry     beta= 0.40
     Davidson diagonalization with overlap
     ethr =  1.20E-07,  avg # of iterations =  3.0

     negative rho (up, down):  3.670E-08 0.000E+00

     total cpu time spent up to now is    86406.3 secs

     total energy              =    -142.26988307 Ry
     Harris-Foulkes estimate   =    -142.26988425 Ry
     estimated scf accuracy    <       0.00001457 Ry

     iteration #  7     ecut=    80.00 Ry     beta= 0.40
     Davidson diagonalization with overlap
     ethr =  1.57E-08,  avg # of iterations =  5.0

     total cpu time spent up to now is    86423.2 secs

     total energy              =    -142.26988320 Ry
     Harris-Foulkes estimate   =    -142.26988423 Ry
     estimated scf accuracy    <       0.00000809 Ry

     iteration #  8     ecut=    80.00 Ry     beta= 0.40
     Davidson diagonalization with overlap
     ethr =  8.70E-09,  avg # of iterations =  6.0

     total cpu time spent up to now is    86444.4 secs

     total energy              =    -142.26988413 Ry
     Harris-Foulkes estimate   =    -142.26988691 Ry
     estimated scf accuracy    <       0.00001408 Ry

     iteration #  9     ecut=    80.00 Ry     beta= 0.40
     Davidson diagonalization with overlap
     ethr =  8.70E-09,  avg # of iterations =  3.0

     total cpu time spent up to now is    86461.1 secs

     total energy              =    -142.26988363 Ry
     Harris-Foulkes estimate   =    -142.26988469 Ry
     estimated scf accuracy    <       0.00000422 Ry

     iteration # 10     ecut=    80.00 Ry     beta= 0.40
     Davidson diagonalization with overlap
     ethr =  4.54E-09,  avg # of iterations =  5.0

     total cpu time spent up to now is    86476.8 secs

     total energy              =    -142.26988391 Ry
     Harris-Foulkes estimate   =    -142.26988399 Ry
     estimated scf accuracy    <       0.00000035 Ry

     iteration # 11     ecut=    80.00 Ry     beta= 0.40
     Davidson diagonalization with overlap
     ethr =  3.81E-10,  avg # of iterations =  6.0

     total cpu time spent up to now is    86498.2 secs

     total energy              =    -142.26988402 Ry
     Harris-Foulkes estimate   =    -142.26988405 Ry
     estimated scf accuracy    <       0.00000018 Ry

     iteration # 12     ecut=    80.00 Ry     beta= 0.40
     Davidson diagonalization with overlap
     ethr =  1.96E-10,  avg # of iterations =  4.0

     total cpu time spent up to now is    86516.3 secs

     total energy              =    -142.26988402 Ry
     Harris-Foulkes estimate   =    -142.26988405 Ry
     estimated scf accuracy    <       0.00000016 Ry

     iteration # 13     ecut=    80.00 Ry     beta= 0.40
     Davidson diagonalization with overlap
     ethr =  1.75E-10,  avg # of iterations =  1.0

     total cpu time spent up to now is    86530.7 secs

     total energy              =    -142.26988402 Ry
     Harris-Foulkes estimate   =    -142.26988403 Ry
     estimated scf accuracy    <       0.00000008 Ry

     iteration # 14     ecut=    80.00 Ry     beta= 0.40
     Davidson diagonalization with overlap
     ethr =  8.13E-11,  avg # of iterations =  4.0

     total cpu time spent up to now is    86547.2 secs

     End of self-consistent calculation

          k = 0.0000 0.0000 0.0000 (315219 PWs)   bands (ev):

   -11.6236 -10.7478 -10.7478 -10.7477 -10.7477 -10.7477 -10.7476  -9.0217
    -9.0216  -9.0216  -9.0216  -9.0216  -9.0215  -8.1738  -8.1738  -8.1737
    -8.1737  -8.1737  -8.1737  -5.7782  -5.7782  -5.7781  -5.7781  -5.7781
    -5.7780  -5.7076  -5.7076  -5.7075  -5.7075  -5.7075  -5.7075  -4.8691
    -4.0234  -4.0234  -4.0234  -4.0233  -4.0233  -4.0233  -3.7524  -3.7523
    -3.7522  -3.7522  -3.7521  -3.7520  -2.3346  -2.3345  -2.3345  -2.3345
    -2.3345  -2.3345  -1.8112  -1.8112  -1.8111  -1.8111  -1.8110  -1.8110

     the Fermi energy is    -2.4051 ev

!    total energy              =    -142.26988401 Ry
     Harris-Foulkes estimate   =    -142.26988402 Ry
     estimated scf accuracy    <          8.4E-09 Ry

     The total energy is the sum of the following terms:

     one-electron contribution =    -702.58091205 Ry
     hartree contribution      =     360.19340181 Ry
     xc contribution           =     -63.84989996 Ry
     ewald contribution        =     264.01419173 Ry
     smearing contrib. (-TS)   =      -0.04666554 Ry

     convergence has been achieved in  14 iterations

     Forces acting on atoms (cartesian axes, Ry/au):

     atom    1 type  1   force =     0.00000377    0.00000870    0.00000000
     atom    2 type  1   force =     0.00000382    0.00000474    0.00000000
     atom    3 type  1   force =    -0.00000437    0.00000160    0.00000000
     atom    4 type  1   force =    -0.00000842    0.00001177    0.00000000
     atom    5 type  1   force =    -0.00000512   -0.00000640    0.00000000
     atom    6 type  1   force =    -0.00000589   -0.00000671    0.00000000
     atom    7 type  1   force =     0.00001227   -0.00000584    0.00000000
     atom    8 type  1   force =     0.00000034    0.00001249    0.00000000
     atom    9 type  1   force =     0.00000274   -0.00000066    0.00000000
     atom   10 type  1   force =     0.00000216    0.00000877    0.00000000
     atom   11 type  1   force =     0.00000259   -0.00000153    0.00000000
     atom   12 type  1   force =    -0.00000794   -0.00000166    0.00000000
     atom   13 type  1   force =     0.00000646    0.00000271    0.00000000
     atom   14 type  1   force =    -0.00001136   -0.00001990    0.00000000
     atom   15 type  1   force =    -0.00000131    0.00000274    0.00000000
     atom   16 type  1   force =    -0.00000245   -0.00000827    0.00000000
     atom   17 type  1   force =    -0.00000257   -0.00001060    0.00000000
     atom   18 type  1   force =    -0.00000812    0.00000306    0.00000000
     atom   19 type  1   force =    -0.00001238   -0.00000935    0.00000000
     atom   20 type  1   force =     0.00000120    0.00000180    0.00000000
     atom   21 type  1   force =     0.00000006   -0.00000003    0.00000000
     atom   22 type  1   force =    -0.00000941    0.00000191    0.00000000
     atom   23 type  1   force =     0.00001021   -0.00000442    0.00000000
     atom   24 type  1   force =    -0.00000781   -0.00000297    0.00000000
     atom   25 type  1   force =     0.00000924    0.00000255    0.00000000
     atom   26 type  1   force =     0.00001244   -0.00000196    0.00000000
     atom   27 type  1   force =    -0.00001421    0.00000095    0.00000000
     atom   28 type  1   force =     0.00001034    0.00001376    0.00000000
     atom   29 type  1   force =     0.00000130    0.00001065    0.00000000
     atom   30 type  1   force =     0.00001506   -0.00000103    0.00000000
     atom   31 type  1   force =     0.00000737   -0.00000687    0.00000000

     Total force =     0.000060     Total SCF correction =     0.000097
     SCF correction compared to forces is large: reduce conv_thr to get better values


     Computing stress (Cartesian axis) and pressure

          total   stress  (Ry/bohr**3)                   (kbar)     P=    0.00
   0.00000003   0.00000001   0.00000000          0.00      0.00      0.00
   0.00000001   0.00000006   0.00000000          0.00      0.01      0.00
   0.00000000   0.00000000  -0.00000002          0.00      0.00     -0.00


     Writing output data file 19al_planar_2x2_vcr.save/
 
     init_run     :     41.39s CPU     46.47s WALL (       2 calls)
     electrons    :  57533.00s CPU  68572.40s WALL (     245 calls)
     update_pot   :   3777.61s CPU   3841.68s WALL (     243 calls)
     forces       :   3285.39s CPU   3419.76s WALL (     245 calls)
     stress       :  10241.76s CPU  10537.55s WALL (     245 calls)

     Called by init_run:
     wfcinit      :     21.59s CPU     26.00s WALL (       2 calls)
     potinit      :      7.56s CPU      7.92s WALL (       2 calls)
     hinit0       :      8.59s CPU      8.75s WALL (       2 calls)

     Called by electrons:
     c_bands      :  48076.07s CPU  56935.85s WALL (    2392 calls)
     sum_band     :   6399.86s CPU   7856.58s WALL (    2392 calls)
     v_of_rho     :   2633.17s CPU   3095.83s WALL (    2590 calls)
     mix_rho      :    542.06s CPU    764.78s WALL (    2392 calls)

     Called by c_bands:
     init_us_2    :    867.52s CPU    975.66s WALL (    4786 calls)
     cegterg      :  41490.05s CPU  50208.18s WALL (    2393 calls)

     Called by sum_band:

     Called by *egterg:
     h_psi        :  36661.24s CPU  45057.45s WALL (   15414 calls)
     g_psi        :    125.32s CPU    132.38s WALL (   13019 calls)
     cdiaghg      :    118.24s CPU    123.94s WALL (   15121 calls)

     Called by h_psi:
     h_psi:pot    :  36568.15s CPU  44840.97s WALL (   15414 calls)
     h_psi:calbec :   4750.31s CPU   5113.82s WALL (   15414 calls)
     vloc_psi     :  27116.53s CPU  34938.39s WALL (   15414 calls)
     add_vuspsi   :   4701.09s CPU   4788.60s WALL (   15414 calls)

     General routines
     calbec       :   5435.86s CPU   5830.39s WALL (   16639 calls)
     fft          :   2212.78s CPU   2582.61s WALL (   32315 calls)
     ffts         :    153.79s CPU    180.53s WALL (    2392 calls)
     fftw         :  28514.67s CPU  37332.47s WALL (  940088 calls)
 
     Parallel routines
     fft_scatt_xy :   5271.22s CPU   7074.16s WALL (  974795 calls)
     fft_scatt_yz :  11232.44s CPU  13232.56s WALL (  974795 calls)
 
     PWSCF        :    20h49m CPU        1d    0h 2m WALL

 
   This run was terminated on:   8:10:26  27Nov2020            

=------------------------------------------------------------------------------=
   JOB DONE.
=------------------------------------------------------------------------------=
