
     Program PWSCF v.6.3MaX starts on 26Nov2020 at  9:19:19 

     This program is part of the open-source Quantum ESPRESSO suite
     for quantum simulation of materials; please cite
         "P. Giannozzi et al., J. Phys.:Condens. Matter 21 395502 (2009);
         "P. Giannozzi et al., J. Phys.:Condens. Matter 29 465901 (2017);
          URL http://www.quantum-espresso.org", 
     in publications or presentations arising from this work. More details at
     http://www.quantum-espresso.org/quote

     Parallel version (MPI), running on     8 processors

     MPI processes distributed on     2 nodes
     R & G space division:  proc/nbgrp/npool/nimage =       8
     Waiting for input...
     Reading input from standard input

     Current dimensions of program PWSCF are:
     Max number of different atomic species (ntypx) = 10
     Max number of k-points (npk) =  40000
     Max angular momentum in pseudopotentials (lmaxx) =  3

     Subspace diagonalization in iterative solution of the eigenvalue problem:
     a serial algorithm will be used

 
     Parallelization info
     --------------------
     sticks:   dense  smooth     PW     G-vecs:    dense   smooth      PW
     Min        3123    3123    778               448599   448599   56048
     Max        3124    3124    779               448604   448604   56052
     Sum       24985   24985   6229              3588803  3588803  448403
 


     bravais-lattice index     =            4
     lattice parameter (alat)  =      33.6810  a.u.
     unit-cell volume          =   37130.3117 (a.u.)^3
     number of atoms/cell      =           31
     number of atomic types    =            1
     number of electrons       =        93.00
     number of Kohn-Sham states=           56
     kinetic-energy cutoff     =      80.0000  Ry
     charge density cutoff     =     320.0000  Ry
     convergence threshold     =      1.0E-06
     mixing beta               =       0.4000
     number of iterations used =            8  plain     mixing
     Exchange-correlation      = PBE ( 1  4  3  4 0 0)
     nstep                     =          300


     celldm(1)=  33.680967  celldm(2)=   0.000000  celldm(3)=   1.122133
     celldm(4)=   0.000000  celldm(5)=   0.000000  celldm(6)=   0.000000

     crystal axes: (cart. coord. in units of alat)
               a(1) = (   1.000000   0.000000   0.000000 )  
               a(2) = (  -0.500000   0.866025   0.000000 )  
               a(3) = (   0.000000   0.000000   1.122133 )  

     reciprocal axes: (cart. coord. in units 2 pi/alat)
               b(1) = (  1.000000  0.577350  0.000000 )  
               b(2) = (  0.000000  1.154701  0.000000 )  
               b(3) = (  0.000000  0.000000  0.891160 )  


     PseudoPot. # 1 for Al read from file:
     ./Al.upf
     MD5 check sum: 4974d48a734c9d7d1eb6780a1419d19d
     Pseudo is Norm-conserving + core correction, Zval =  3.0
     Generated using ONCVPSP code by D. R. Hamann
     Using radial grid of 1876 points,  6 beta functions with: 
                l(1) =   0
                l(2) =   0
                l(3) =   1
                l(4) =   1
                l(5) =   2
                l(6) =   2

     atomic species   valence    mass     pseudopotential
        Al             3.00    29.98200     Al( 1.00)

      2 Sym. Ops. (no inversion) found



   Cartesian axes

     site n.     atom                  positions (alat units)
         1           Al  tau(   1) = (  -0.0000000   0.1443393   0.0000000  )
         2           Al  tau(   2) = (   0.1250015   0.0721696   0.0000000  )
         3           Al  tau(   3) = (  -0.1249997   0.3608472   0.0000000  )
         4           Al  tau(   4) = (   0.0000018   0.2886775   0.0000000  )
         5           Al  tau(   5) = (  -0.2499994   0.5773550   0.0000000  )
         6           Al  tau(   6) = (  -0.1249979   0.5051854   0.0000000  )
         7           Al  tau(   7) = (  -0.3749991   0.7938629   0.0000000  )
         8           Al  tau(   8) = (  -0.2499976   0.7216932   0.0000000  )
         9           Al  tau(   9) = (   0.2500011   0.1443403   0.0000000  )
        10           Al  tau(  10) = (   0.3750027   0.0721706   0.0000000  )
        11           Al  tau(  11) = (   0.1250014   0.3608482   0.0000000  )
        12           Al  tau(  12) = (   0.2500030   0.2886785   0.0000000  )
        13           Al  tau(  13) = (   0.0000017   0.5773560   0.0000000  )
        14           Al  tau(  14) = (   0.1250033   0.5051864   0.0000000  )
        15           Al  tau(  15) = (  -0.1249980   0.7938639   0.0000000  )
        16           Al  tau(  16) = (   0.0000036   0.7216942   0.0000000  )
        17           Al  tau(  17) = (   0.5000023   0.1443413   0.0000000  )
        18           Al  tau(  18) = (   0.6250038   0.0721717   0.0000000  )
        19           Al  tau(  19) = (   0.3750026   0.3608492   0.0000000  )
        20           Al  tau(  20) = (   0.5000041   0.2886795   0.0000000  )
        21           Al  tau(  21) = (   0.2500029   0.5773571   0.0000000  )
        22           Al  tau(  22) = (   0.3750044   0.5051874   0.0000000  )
        23           Al  tau(  23) = (   0.1250032   0.7938649   0.0000000  )
        24           Al  tau(  24) = (   0.2500047   0.7216953   0.0000000  )
        25           Al  tau(  25) = (   0.7500035   0.1443423   0.0000000  )
        26           Al  tau(  26) = (   0.8750050   0.0721727   0.0000000  )
        27           Al  tau(  27) = (   0.6250038   0.3608502   0.0000000  )
        28           Al  tau(  28) = (   0.7500053   0.2886805   0.0000000  )
        29           Al  tau(  29) = (   0.5000041   0.5773581   0.0000000  )
        30           Al  tau(  30) = (   0.6250056   0.5051884   0.0000000  )
        31           Al  tau(  31) = (   0.3750044   0.7938660   0.0000000  )

     number of k points=     1  Methfessel-Paxton smearing, width (Ry)=  0.0500
                       cart. coord. in units 2pi/alat
        k(    1) = (   0.0000000   0.0000000   0.0000000), wk =   2.0000000

     Dense  grid:  3588803 G-vectors     FFT dimensions: ( 192, 192, 216)

     Estimated max dynamical RAM per process >       1.15 GB

     Estimated total dynamical RAM >       9.23 GB

     Initial potential from superposition of free atoms

     starting charge   92.92414, renormalised to   93.00000

     negative rho (up, down):  9.278E-05 0.000E+00
     Starting wfcs are  124 randomized atomic wfcs

     total cpu time spent up to now is       29.7 secs

     Self-consistent Calculation

     iteration #  1     ecut=    80.00 Ry     beta= 0.40
     Davidson diagonalization with overlap
     ethr =  1.00E-02,  avg # of iterations =  2.0

     total cpu time spent up to now is       57.4 secs

     total energy              =    -140.64229887 Ry
     Harris-Foulkes estimate   =    -141.23600689 Ry
     estimated scf accuracy    <       1.54840883 Ry

     iteration #  2     ecut=    80.00 Ry     beta= 0.40
     Davidson diagonalization with overlap
     ethr =  1.66E-03,  avg # of iterations =  5.0

     total cpu time spent up to now is       84.2 secs

     total energy              =    -140.21921556 Ry
     Harris-Foulkes estimate   =    -141.45845900 Ry
     estimated scf accuracy    <       6.74924930 Ry

     iteration #  3     ecut=    80.00 Ry     beta= 0.40
     Davidson diagonalization with overlap
     ethr =  1.66E-03,  avg # of iterations =  5.0

     total cpu time spent up to now is      110.1 secs

     total energy              =    -140.82878250 Ry
     Harris-Foulkes estimate   =    -141.02430261 Ry
     estimated scf accuracy    <       1.17705846 Ry

     iteration #  4     ecut=    80.00 Ry     beta= 0.40
     Davidson diagonalization with overlap
     ethr =  1.27E-03,  avg # of iterations =  1.0

     total cpu time spent up to now is      129.1 secs

     total energy              =    -140.90185924 Ry
     Harris-Foulkes estimate   =    -140.94391756 Ry
     estimated scf accuracy    <       0.14447161 Ry

     iteration #  5     ecut=    80.00 Ry     beta= 0.40
     Davidson diagonalization with overlap
     ethr =  1.55E-04,  avg # of iterations =  5.0

     total cpu time spent up to now is      152.0 secs

     total energy              =    -140.91374341 Ry
     Harris-Foulkes estimate   =    -140.95524797 Ry
     estimated scf accuracy    <       0.30124333 Ry

     iteration #  6     ecut=    80.00 Ry     beta= 0.40
     Davidson diagonalization with overlap
     ethr =  1.55E-04,  avg # of iterations =  3.0

     total cpu time spent up to now is      174.1 secs

     total energy              =    -140.93237443 Ry
     Harris-Foulkes estimate   =    -140.93468358 Ry
     estimated scf accuracy    <       0.01018005 Ry

     iteration #  7     ecut=    80.00 Ry     beta= 0.40
     Davidson diagonalization with overlap
     ethr =  1.09E-05,  avg # of iterations = 11.0

     total cpu time spent up to now is      210.5 secs

     total energy              =    -140.93545566 Ry
     Harris-Foulkes estimate   =    -140.93695026 Ry
     estimated scf accuracy    <       0.00760311 Ry

     iteration #  8     ecut=    80.00 Ry     beta= 0.40
     Davidson diagonalization with overlap
     ethr =  8.18E-06,  avg # of iterations =  3.0

     total cpu time spent up to now is      232.5 secs

     total energy              =    -140.93541462 Ry
     Harris-Foulkes estimate   =    -140.93693781 Ry
     estimated scf accuracy    <       0.00972375 Ry

     iteration #  9     ecut=    80.00 Ry     beta= 0.40
     Davidson diagonalization with overlap
     ethr =  8.18E-06,  avg # of iterations =  3.0

     total cpu time spent up to now is      252.8 secs

     total energy              =    -140.93588122 Ry
     Harris-Foulkes estimate   =    -140.93624796 Ry
     estimated scf accuracy    <       0.00216509 Ry

     iteration # 10     ecut=    80.00 Ry     beta= 0.40
     Davidson diagonalization with overlap
     ethr =  2.33E-06,  avg # of iterations =  4.0

     total cpu time spent up to now is      274.0 secs

     total energy              =    -140.93600087 Ry
     Harris-Foulkes estimate   =    -140.93609094 Ry
     estimated scf accuracy    <       0.00042027 Ry

     iteration # 11     ecut=    80.00 Ry     beta= 0.40
     Davidson diagonalization with overlap
     ethr =  4.52E-07,  avg # of iterations =  5.0

     total cpu time spent up to now is      299.0 secs

     total energy              =    -140.93608994 Ry
     Harris-Foulkes estimate   =    -140.93612836 Ry
     estimated scf accuracy    <       0.00020723 Ry

     iteration # 12     ecut=    80.00 Ry     beta= 0.40
     Davidson diagonalization with overlap
     ethr =  2.23E-07,  avg # of iterations =  4.0

     total cpu time spent up to now is      319.8 secs

     total energy              =    -140.93610291 Ry
     Harris-Foulkes estimate   =    -140.93612304 Ry
     estimated scf accuracy    <       0.00011943 Ry

     iteration # 13     ecut=    80.00 Ry     beta= 0.40
     Davidson diagonalization with overlap
     ethr =  1.28E-07,  avg # of iterations =  3.0

     total cpu time spent up to now is      340.3 secs

     total energy              =    -140.93611132 Ry
     Harris-Foulkes estimate   =    -140.93611456 Ry
     estimated scf accuracy    <       0.00001368 Ry

     iteration # 14     ecut=    80.00 Ry     beta= 0.40
     Davidson diagonalization with overlap
     ethr =  1.47E-08,  avg # of iterations =  5.0

     total cpu time spent up to now is      365.5 secs

     total energy              =    -140.93611288 Ry
     Harris-Foulkes estimate   =    -140.93611641 Ry
     estimated scf accuracy    <       0.00001399 Ry

     iteration # 15     ecut=    80.00 Ry     beta= 0.40
     Davidson diagonalization with overlap
     ethr =  1.47E-08,  avg # of iterations =  3.0

     total cpu time spent up to now is      386.7 secs

     total energy              =    -140.93611347 Ry
     Harris-Foulkes estimate   =    -140.93611611 Ry
     estimated scf accuracy    <       0.00001853 Ry

     iteration # 16     ecut=    80.00 Ry     beta= 0.40
     Davidson diagonalization with overlap
     ethr =  1.47E-08,  avg # of iterations =  1.0

     total cpu time spent up to now is      406.4 secs

     total energy              =    -140.93611439 Ry
     Harris-Foulkes estimate   =    -140.93611476 Ry
     estimated scf accuracy    <       0.00000200 Ry

     iteration # 17     ecut=    80.00 Ry     beta= 0.40
     Davidson diagonalization with overlap
     ethr =  2.15E-09,  avg # of iterations =  5.0

     total cpu time spent up to now is      429.2 secs

     total energy              =    -140.93611430 Ry
     Harris-Foulkes estimate   =    -140.93611469 Ry
     estimated scf accuracy    <       0.00000247 Ry

     iteration # 18     ecut=    80.00 Ry     beta= 0.40
     Davidson diagonalization with overlap
     ethr =  2.15E-09,  avg # of iterations =  3.0

     total cpu time spent up to now is      448.5 secs

     End of self-consistent calculation

          k = 0.0000 0.0000 0.0000 (448403 PWs)   bands (ev):

    -9.9529  -9.4483  -9.4329  -9.4329  -9.4259  -9.4258  -9.1458  -8.4049
    -8.4048  -8.3881  -8.3880  -8.3796  -8.3033  -8.2570  -8.2568  -7.5864
    -6.9325  -6.9323  -6.8233  -6.4865  -6.4772  -6.4771  -6.3701  -6.3699
    -5.4639  -4.8436  -4.8432  -4.8370  -4.7357  -4.7354  -4.4780  -4.4680
    -4.4428  -4.4427  -4.1225  -4.1223  -3.9779  -3.4712  -3.4687  -3.4686
    -3.4576  -3.4575  -3.4017  -3.2744  -3.2743  -3.2223  -3.2073  -2.9743
    -2.9652  -2.9652  -2.9388  -2.5198  -2.5196  -2.4499  -2.4480  -2.4314

     the Fermi energy is    -3.0910 ev

!    total energy              =    -140.93611380 Ry
     Harris-Foulkes estimate   =    -140.93611438 Ry
     estimated scf accuracy    <       0.00000063 Ry

     The total energy is the sum of the following terms:

     one-electron contribution =    -502.03541030 Ry
     hartree contribution      =     259.76268614 Ry
     xc contribution           =     -61.33568345 Ry
     ewald contribution        =     162.75328960 Ry
     smearing contrib. (-TS)   =      -0.08099579 Ry

     convergence has been achieved in  18 iterations

     Forces acting on atoms (cartesian axes, Ry/au):

     atom    1 type  1   force =     0.00002521   -0.00132906    0.00000000
     atom    2 type  1   force =    -0.00061147    0.00331283    0.00000000
     atom    3 type  1   force =    -0.00042830   -0.00027256    0.00000000
     atom    4 type  1   force =     0.00004913    0.00133071    0.00000000
     atom    5 type  1   force =    -0.00111151    0.00066085    0.00000000
     atom    6 type  1   force =     0.00117847   -0.00060016    0.00000000
     atom    7 type  1   force =    -0.01309331   -0.00756703    0.00000000
     atom    8 type  1   force =     0.00254715   -0.00214577    0.00000000
     atom    9 type  1   force =    -0.00531184   -0.00126679    0.00000000
     atom   10 type  1   force =     0.00187069    0.00110681    0.00000000
     atom   11 type  1   force =     0.00042694   -0.00029414    0.00000000
     atom   12 type  1   force =     0.00202284   -0.00114146    0.00000000
     atom   13 type  1   force =    -0.00003658    0.00050747    0.00000000
     atom   14 type  1   force =    -0.00107178   -0.00061370    0.00000000
     atom   15 type  1   force =    -0.00376021   -0.00398115    0.00000000
     atom   16 type  1   force =     0.00002630    0.00231820    0.00000000
     atom   17 type  1   force =     0.00001463   -0.00001067    0.00000000
     atom   18 type  1   force =    -0.00186075    0.00111138    0.00000000
     atom   19 type  1   force =    -0.00157980    0.00516553    0.00000000
     atom   20 type  1   force =     0.00001208   -0.00214466    0.00000000
     atom   21 type  1   force =     0.00106712    0.00061189    0.00000000
     atom   22 type  1   force =    -0.00321768   -0.00112255    0.00000000
     atom   23 type  1   force =     0.00370655   -0.00396978    0.00000000
     atom   24 type  1   force =    -0.00257383   -0.00219434    0.00000000
     atom   25 type  1   force =     0.00525386   -0.00120251    0.00000000
     atom   26 type  1   force =     0.00061801    0.00326382    0.00000000
     atom   27 type  1   force =     0.00159005    0.00514012    0.00000000
     atom   28 type  1   force =    -0.00207999   -0.00120826    0.00000000
     atom   29 type  1   force =     0.00004692    0.01516955    0.00000000
     atom   30 type  1   force =     0.00313930   -0.00110323    0.00000000
     atom   31 type  1   force =     0.01314183   -0.00753135    0.00000000

     Total force =     0.031204     Total SCF correction =     0.000631


     Computing stress (Cartesian axis) and pressure

          total   stress  (Ry/bohr**3)                   (kbar)     P=   -0.57
  -0.00000582  -0.00000003   0.00000000         -0.86     -0.00      0.00
  -0.00000003  -0.00000576   0.00000000         -0.00     -0.85      0.00
   0.00000000   0.00000000   0.00000000          0.00      0.00      0.00


     BFGS Geometry Optimization

     number of scf cycles    =   1
     number of bfgs steps    =   0

     enthalpy new            =    -140.9361138046 Ry

     new trust radius        =       0.0151696258 bohr
     new conv_thr            =       0.0000010000 Ry

     new unit-cell volume =  37119.56686 a.u.^3 (  5500.55223 Ang^3 )
     density =      0.28059 g/cm^3

CELL_PARAMETERS (alat= 33.68096681)
   0.999854506  -0.000000650   0.000000000
  -0.499927816   0.865901100   0.000000000
   0.000000000   0.000000000   1.122132950

ATOMIC_POSITIONS (angstrom)
Al       0.000011082   2.571514443   0.000000000
Al       2.227278224   1.287859693   0.000000000
Al      -2.227801881   6.430382664   0.000000000
Al       0.000054742   5.145120177   0.000000000
Al      -4.455736371  10.289185760   0.000000000
Al      -2.226920728   9.002407780   0.000000000
Al      -6.689648945  14.143141613   0.000000000
Al      -4.453769564  12.859899218   0.000000000
Al       4.452359746   2.571562689   0.000000000
Al       6.683764037   1.286707780   0.000000000
Al       2.227823131   6.430386545   0.000000000
Al       4.456271534   5.143827446   0.000000000
Al       0.000004874  10.289119903   0.000000000
Al       2.227061164   9.002415910   0.000000000
Al      -2.229538300  14.145054197   0.000000000
Al       0.000069152  12.862276405   0.000000000
Al       8.910350483   2.572242596   0.000000000
Al      11.136962234   1.286725494   0.000000000
Al       6.681933862   6.433290558   0.000000000
Al       8.910380145   5.143311944   0.000000000
Al       4.455761344  10.289190448   0.000000000
Al       6.681098270   9.002161973   0.000000000
Al       2.229584865  14.145075505   0.000000000
Al       4.453865927  12.859904116   0.000000000
Al      13.368295063   2.571627289   0.000000000
Al      15.593446249   1.287879647   0.000000000
Al      11.138783533   6.433292408   0.000000000
Al      13.364445730   5.143822693   0.000000000
Al       8.910394052  10.296908218   0.000000000
Al      11.139634251   9.002187491   0.000000000
Al       6.689749578  14.143206370   0.000000000



     Writing output data file 32al_planar_2x2_vcr.save/
     NEW-OLD atomic charge density approx. for the potential

     negative rho (up, down):  2.992E-07 0.000E+00
     extrapolated charge   92.97310, renormalised to   93.00000

     total cpu time spent up to now is      520.1 secs

     Self-consistent Calculation

     iteration #  1     ecut=    80.00 Ry     beta= 0.40
     Davidson diagonalization with overlap
     ethr =  1.00E-06,  avg # of iterations =  4.0

     negative rho (up, down):  1.477E-07 0.000E+00

     total cpu time spent up to now is      548.0 secs

     total energy              =    -140.93705221 Ry
     Harris-Foulkes estimate   =    -141.07023370 Ry
     estimated scf accuracy    <       0.00011307 Ry

     iteration #  2     ecut=    80.00 Ry     beta= 0.40
     Davidson diagonalization with overlap
     ethr =  1.22E-07,  avg # of iterations = 14.0

     negative rho (up, down):  1.344E-07 0.000E+00

     total cpu time spent up to now is      581.5 secs

     total energy              =    -140.93694958 Ry
     Harris-Foulkes estimate   =    -140.93722983 Ry
     estimated scf accuracy    <       0.00235364 Ry

     iteration #  3     ecut=    80.00 Ry     beta= 0.40
     Davidson diagonalization with overlap
     ethr =  1.22E-07,  avg # of iterations =  4.0

     negative rho (up, down):  1.015E-07 0.000E+00

     total cpu time spent up to now is      607.8 secs

     total energy              =    -140.93707897 Ry
     Harris-Foulkes estimate   =    -140.93708440 Ry
     estimated scf accuracy    <       0.00002838 Ry

     iteration #  4     ecut=    80.00 Ry     beta= 0.40
     Davidson diagonalization with overlap
     ethr =  3.05E-08,  avg # of iterations =  2.0

     negative rho (up, down):  7.125E-08 0.000E+00

     total cpu time spent up to now is      626.2 secs

     total energy              =    -140.93707808 Ry
     Harris-Foulkes estimate   =    -140.93708117 Ry
     estimated scf accuracy    <       0.00001454 Ry

     iteration #  5     ecut=    80.00 Ry     beta= 0.40
     Davidson diagonalization with overlap
     ethr =  1.56E-08,  avg # of iterations =  4.0

     negative rho (up, down):  3.527E-08 0.000E+00

     total cpu time spent up to now is      646.2 secs

     total energy              =    -140.93707669 Ry
     Harris-Foulkes estimate   =    -140.93708228 Ry
     estimated scf accuracy    <       0.00003483 Ry

     iteration #  6     ecut=    80.00 Ry     beta= 0.40
     Davidson diagonalization with overlap
     ethr =  1.56E-08,  avg # of iterations =  4.0

     negative rho (up, down):  1.844E-08 0.000E+00

     total cpu time spent up to now is      665.1 secs

     total energy              =    -140.93707889 Ry
     Harris-Foulkes estimate   =    -140.93708010 Ry
     estimated scf accuracy    <       0.00000543 Ry

     iteration #  7     ecut=    80.00 Ry     beta= 0.40
     Davidson diagonalization with overlap
     ethr =  5.84E-09,  avg # of iterations =  4.0

     negative rho (up, down):  1.278E-08 0.000E+00

     total cpu time spent up to now is      686.6 secs

     total energy              =    -140.93707903 Ry
     Harris-Foulkes estimate   =    -140.93708010 Ry
     estimated scf accuracy    <       0.00000758 Ry

     iteration #  8     ecut=    80.00 Ry     beta= 0.40
     Davidson diagonalization with overlap
     ethr =  5.84E-09,  avg # of iterations =  2.0

     total cpu time spent up to now is      706.8 secs

     End of self-consistent calculation

          k = 0.0000 0.0000 0.0000 (448403 PWs)   bands (ev):

    -9.9535  -9.4496  -9.4339  -9.4329  -9.4252  -9.4247  -9.1443  -8.4059
    -8.4042  -8.3849  -8.3846  -8.3808  -8.3054  -8.2544  -8.2539  -7.5860
    -6.9326  -6.9323  -6.8234  -6.4817  -6.4781  -6.4773  -6.3723  -6.3719
    -5.4688  -4.8402  -4.8399  -4.8361  -4.7367  -4.7363  -4.4775  -4.4677
    -4.4432  -4.4429  -4.1244  -4.1244  -3.9781  -3.4722  -3.4672  -3.4668
    -3.4588  -3.4578  -3.3996  -3.2741  -3.2734  -3.2213  -3.2171  -2.9706
    -2.9639  -2.9635  -2.9405  -2.5181  -2.5177  -2.4487  -2.4452  -2.4444

     the Fermi energy is    -3.0910 ev

!    total energy              =    -140.93707927 Ry
     Harris-Foulkes estimate   =    -140.93707935 Ry
     estimated scf accuracy    <       0.00000033 Ry

     The total energy is the sum of the following terms:

     one-electron contribution =    -502.12259628 Ry
     hartree contribution      =     259.80524487 Ry
     xc contribution           =     -61.33368199 Ry
     ewald contribution        =     162.79492104 Ry
     smearing contrib. (-TS)   =      -0.08096690 Ry

     convergence has been achieved in   8 iterations

     Forces acting on atoms (cartesian axes, Ry/au):

     atom    1 type  1   force =     0.00002090   -0.00074713    0.00000000
     atom    2 type  1   force =    -0.00035704    0.00208560    0.00000000
     atom    3 type  1   force =    -0.00060083   -0.00035367    0.00000000
     atom    4 type  1   force =     0.00003249    0.00104108    0.00000000
     atom    5 type  1   force =    -0.00073578    0.00038485    0.00000000
     atom    6 type  1   force =     0.00087321   -0.00052243    0.00000000
     atom    7 type  1   force =    -0.01295001   -0.00741144    0.00000000
     atom    8 type  1   force =     0.00161216   -0.00145657    0.00000000
     atom    9 type  1   force =    -0.00472934   -0.00133838    0.00000000
     atom   10 type  1   force =     0.00141370    0.00078352    0.00000000
     atom   11 type  1   force =     0.00052905   -0.00036103    0.00000000
     atom   12 type  1   force =     0.00211205   -0.00111380    0.00000000
     atom   13 type  1   force =     0.00002249    0.00052285    0.00000000
     atom   14 type  1   force =    -0.00086412   -0.00047762    0.00000000
     atom   15 type  1   force =    -0.00342139   -0.00337533    0.00000000
     atom   16 type  1   force =     0.00003183    0.00251657    0.00000000
     atom   17 type  1   force =     0.00000191   -0.00002916    0.00000000
     atom   18 type  1   force =    -0.00146817    0.00078080    0.00000000
     atom   19 type  1   force =    -0.00139465    0.00464074    0.00000000
     atom   20 type  1   force =     0.00002201   -0.00169816    0.00000000
     atom   21 type  1   force =     0.00076415    0.00040679    0.00000000
     atom   22 type  1   force =    -0.00215620   -0.00057741    0.00000000
     atom   23 type  1   force =     0.00335610   -0.00339154    0.00000000
     atom   24 type  1   force =    -0.00157933   -0.00154727    0.00000000
     atom   25 type  1   force =     0.00474656   -0.00126243    0.00000000
     atom   26 type  1   force =     0.00037016    0.00211198    0.00000000
     atom   27 type  1   force =     0.00138394    0.00462128    0.00000000
     atom   28 type  1   force =    -0.00208938   -0.00111018    0.00000000
     atom   29 type  1   force =     0.00000435    0.01495696    0.00000000
     atom   30 type  1   force =     0.00209369   -0.00061214    0.00000000
     atom   31 type  1   force =     0.01295549   -0.00746735    0.00000000

     Total force =     0.029520     Total SCF correction =     0.000291


     Computing stress (Cartesian axis) and pressure

          total   stress  (Ry/bohr**3)                   (kbar)     P=   -0.58
  -0.00000597  -0.00000003   0.00000000         -0.88     -0.00      0.00
  -0.00000003  -0.00000587   0.00000000         -0.00     -0.86      0.00
   0.00000000   0.00000000  -0.00000000          0.00      0.00     -0.00


     number of scf cycles    =   2
     number of bfgs steps    =   1

     enthalpy old            =    -140.9361138046 Ry
     enthalpy new            =    -140.9370792664 Ry

     CASE: enthalpy_new < enthalpy_old


     WARNING: bfgs curvature condition failed, Theta= 0.846
     new trust radius        =       0.0227511640 bohr
     new conv_thr            =       0.0000009655 Ry

     new unit-cell volume =  37103.11061 a.u.^3 (  5498.11367 Ang^3 )
     density =      0.28071 g/cm^3

CELL_PARAMETERS (alat= 33.68096681)
   0.999631232  -0.000001660   0.000000000
  -0.499817054   0.865711043   0.000000000
   0.000000000   0.000000000   1.122132950

ATOMIC_POSITIONS (angstrom)
Al       0.000026667   2.570152893   0.000000000
Al       2.226407390   1.289659866   0.000000000
Al      -2.227732810   6.428714446   0.000000000
Al       0.000081181   5.144919194   0.000000000
Al      -4.455468164  10.287327641   0.000000000
Al      -2.225630182   8.999984494   0.000000000
Al      -6.698577072  14.134054359   0.000000000
Al      -4.451180299  12.855673973   0.000000000
Al       4.447381647   2.569946025   0.000000000
Al       6.683556524   1.287154600   0.000000000
Al       2.227707606   6.428703102   0.000000000
Al       4.456930338   5.141790560   0.000000000
Al      -0.000007628  10.287268551   0.000000000
Al       2.225792879   9.000004115   0.000000000
Al      -2.231906812  14.139037396   0.000000000
Al       0.000079718  12.861391332   0.000000000
Al       8.908363999   2.571650479   0.000000000
Al      11.133165995   1.287168122   0.000000000
Al       6.679256638   6.435758792   0.000000000
Al       8.908399431   5.140660731   0.000000000
Al       4.455470278  10.287316749   0.000000000
Al       6.677511325   8.999526744   0.000000000
Al       2.231876534  14.139050601   0.000000000
Al       4.451256682  12.855611659   0.000000000
Al      13.369276684   2.570058373   0.000000000
Al      15.590343245   1.289661764   0.000000000
Al      11.137466819   6.435738542   0.000000000
Al      13.359788026   5.141755752   0.000000000
Al       8.908411835  10.306669879   0.000000000
Al      11.139168115   8.999538351   0.000000000
Al       6.698668160  14.134091979   0.000000000



     Writing output data file 32al_planar_2x2_vcr.save/
     NEW-OLD atomic charge density approx. for the potential

     negative rho (up, down):  4.866E-07 0.000E+00
     extrapolated charge   92.95879, renormalised to   93.00000

     total cpu time spent up to now is      780.7 secs

     Self-consistent Calculation

     iteration #  1     ecut=    80.00 Ry     beta= 0.40
     Davidson diagonalization with overlap
     ethr =  1.00E-06,  avg # of iterations =  4.0

     negative rho (up, down):  2.438E-07 0.000E+00

     total cpu time spent up to now is      809.6 secs

     total energy              =    -140.93839534 Ry
     Harris-Foulkes estimate   =    -141.14248247 Ry
     estimated scf accuracy    <       0.00012519 Ry

     iteration #  2     ecut=    80.00 Ry     beta= 0.40
     Davidson diagonalization with overlap
     ethr =  1.35E-07,  avg # of iterations =  5.0

     negative rho (up, down):  2.205E-07 0.000E+00

     total cpu time spent up to now is      837.7 secs

     total energy              =    -140.93836482 Ry
     Harris-Foulkes estimate   =    -140.93857421 Ry
     estimated scf accuracy    <       0.00165608 Ry

     iteration #  3     ecut=    80.00 Ry     beta= 0.40
     Davidson diagonalization with overlap
     ethr =  1.35E-07,  avg # of iterations =  4.0

     negative rho (up, down):  1.371E-07 0.000E+00

     total cpu time spent up to now is      860.6 secs

     total energy              =    -140.93846201 Ry
     Harris-Foulkes estimate   =    -140.93846798 Ry
     estimated scf accuracy    <       0.00002407 Ry

     iteration #  4     ecut=    80.00 Ry     beta= 0.40
     Davidson diagonalization with overlap
     ethr =  2.59E-08,  avg # of iterations =  4.0

     negative rho (up, down):  1.037E-07 0.000E+00

     total cpu time spent up to now is      881.1 secs

     total energy              =    -140.93846119 Ry
     Harris-Foulkes estimate   =    -140.93846690 Ry
     estimated scf accuracy    <       0.00002470 Ry

     iteration #  5     ecut=    80.00 Ry     beta= 0.40
     Davidson diagonalization with overlap
     ethr =  2.59E-08,  avg # of iterations =  3.0

     negative rho (up, down):  4.829E-08 0.000E+00

     total cpu time spent up to now is      899.7 secs

     total energy              =    -140.93846277 Ry
     Harris-Foulkes estimate   =    -140.93846682 Ry
     estimated scf accuracy    <       0.00002606 Ry

     iteration #  6     ecut=    80.00 Ry     beta= 0.40
     Davidson diagonalization with overlap
     ethr =  2.59E-08,  avg # of iterations =  1.0

     negative rho (up, down):  1.961E-08 0.000E+00

     total cpu time spent up to now is      918.3 secs

     total energy              =    -140.93846462 Ry
     Harris-Foulkes estimate   =    -140.93846538 Ry
     estimated scf accuracy    <       0.00000334 Ry

     iteration #  7     ecut=    80.00 Ry     beta= 0.40
     Davidson diagonalization with overlap
     ethr =  3.59E-09,  avg # of iterations =  5.0

     negative rho (up, down):  1.218E-08 0.000E+00

     total cpu time spent up to now is      939.6 secs

     total energy              =    -140.93846471 Ry
     Harris-Foulkes estimate   =    -140.93846576 Ry
     estimated scf accuracy    <       0.00000689 Ry

     iteration #  8     ecut=    80.00 Ry     beta= 0.40
     Davidson diagonalization with overlap
     ethr =  3.59E-09,  avg # of iterations =  3.0

     total cpu time spent up to now is      959.2 secs

     End of self-consistent calculation

          k = 0.0000 0.0000 0.0000 (448403 PWs)   bands (ev):

    -9.9544  -9.4503  -9.4360  -9.4351  -9.4235  -9.4232  -9.1418  -8.4049
    -8.4035  -8.3854  -8.3804  -8.3801  -8.3077  -8.2509  -8.2503  -7.5844
    -6.9327  -6.9324  -6.8232  -6.4787  -6.4780  -6.4759  -6.3752  -6.3750
    -5.4771  -4.8350  -4.8347  -4.8335  -4.7376  -4.7374  -4.4756  -4.4667
    -4.4437  -4.4435  -4.1287  -4.1286  -3.9785  -3.4724  -3.4666  -3.4661
    -3.4590  -3.4582  -3.3973  -3.2723  -3.2717  -3.2327  -3.2198  -2.9653
    -2.9614  -2.9612  -2.9433  -2.5143  -2.5139  -2.4464  -2.4415  -2.4410

     the Fermi energy is    -3.0908 ev

!    total energy              =    -140.93846505 Ry
     Harris-Foulkes estimate   =    -140.93846521 Ry
     estimated scf accuracy    <       0.00000031 Ry

     The total energy is the sum of the following terms:

     one-electron contribution =    -502.26068729 Ry
     hartree contribution      =     259.87439236 Ry
     xc contribution           =     -61.33145388 Ry
     ewald contribution        =     162.85965085 Ry
     smearing contrib. (-TS)   =      -0.08036708 Ry

     convergence has been achieved in   8 iterations

     Forces acting on atoms (cartesian axes, Ry/au):

     atom    1 type  1   force =     0.00000645   -0.00030215    0.00000000
     atom    2 type  1   force =    -0.00053214    0.00025666    0.00000000
     atom    3 type  1   force =    -0.00087944   -0.00051244    0.00000000
     atom    4 type  1   force =     0.00001571    0.00071119    0.00000000
     atom    5 type  1   force =    -0.00034265    0.00016021    0.00000000
     atom    6 type  1   force =     0.00059045   -0.00035822    0.00000000
     atom    7 type  1   force =    -0.01280819   -0.00733063    0.00000000
     atom    8 type  1   force =    -0.00001158   -0.00067905    0.00000000
     atom    9 type  1   force =    -0.00350924   -0.00122233    0.00000000
     atom   10 type  1   force =     0.00076446    0.00040247    0.00000000
     atom   11 type  1   force =     0.00081952   -0.00050921    0.00000000
     atom   12 type  1   force =     0.00202466   -0.00111503    0.00000000
     atom   13 type  1   force =     0.00002749    0.00084438    0.00000000
     atom   14 type  1   force =    -0.00059748   -0.00032120    0.00000000
     atom   15 type  1   force =    -0.00278220   -0.00238306    0.00000000
     atom   16 type  1   force =     0.00002272    0.00242923    0.00000000
     atom   17 type  1   force =     0.00000653   -0.00000639    0.00000000
     atom   18 type  1   force =    -0.00080486    0.00039837    0.00000000
     atom   19 type  1   force =    -0.00082142    0.00358341    0.00000000
     atom   20 type  1   force =     0.00002633   -0.00095787    0.00000000
     atom   21 type  1   force =     0.00034351    0.00018609    0.00000000
     atom   22 type  1   force =    -0.00062070    0.00044302    0.00000000
     atom   23 type  1   force =     0.00272862   -0.00239743    0.00000000
     atom   24 type  1   force =     0.00004488   -0.00073922    0.00000000
     atom   25 type  1   force =     0.00353940   -0.00117520    0.00000000
     atom   26 type  1   force =     0.00052335    0.00029301    0.00000000
     atom   27 type  1   force =     0.00082633    0.00358537    0.00000000
     atom   28 type  1   force =    -0.00200845   -0.00109781    0.00000000
     atom   29 type  1   force =     0.00000809    0.01478743    0.00000000
     atom   30 type  1   force =     0.00059612    0.00041217    0.00000000
     atom   31 type  1   force =     0.01280374   -0.00738577    0.00000000

     Total force =     0.027615     Total SCF correction =     0.000315


     Computing stress (Cartesian axis) and pressure

          total   stress  (Ry/bohr**3)                   (kbar)     P=   -0.60
  -0.00000613  -0.00000003   0.00000000         -0.90     -0.00      0.00
  -0.00000003  -0.00000606   0.00000000         -0.00     -0.89      0.00
   0.00000000   0.00000000   0.00000002          0.00      0.00      0.00


     number of scf cycles    =   3
     number of bfgs steps    =   2

     enthalpy old            =    -140.9370792664 Ry
     enthalpy new            =    -140.9384650458 Ry

     CASE: enthalpy_new < enthalpy_old

     new trust radius        =       0.0341192355 bohr
     new conv_thr            =       0.0000010000 Ry

     new unit-cell volume =  37077.91204 a.u.^3 (  5494.37963 Ang^3 )
     density =      0.28090 g/cm^3

CELL_PARAMETERS (alat= 33.68096681)
   0.999289790  -0.000003259   0.000000000
  -0.499647717   0.865419495   0.000000000
   0.000000000   0.000000000   1.122132950

ATOMIC_POSITIONS (angstrom)
Al       0.000040459   2.568349368   0.000000000
Al       2.224948683   1.291205598   0.000000000
Al      -2.227796076   6.426059693   0.000000000
Al       0.000110338   5.144381185   0.000000000
Al      -4.454800777  10.284332085   0.000000000
Al      -2.223846500   8.996385021   0.000000000
Al      -6.711918429  14.120317345   0.000000000
Al      -4.448296404  12.849711849   0.000000000
Al       4.440644435   2.567576663   0.000000000
Al       6.682800643   1.287582740   0.000000000
Al       2.227712417   6.426031310   0.000000000
Al       4.457836594   5.138686781   0.000000000
Al      -0.000027670  10.284634217   0.000000000
Al       2.224036725   8.996412610   0.000000000
Al      -2.235056402  14.130517572   0.000000000
Al       0.000088127  12.859909886   0.000000000
Al       8.905329847   2.570758715   0.000000000
Al      11.127813134   1.287589141   0.000000000
Al       6.675564211   6.438758957   0.000000000
Al       8.905372133   5.137106032   0.000000000
Al       4.454743546  10.284295143   0.000000000
Al       6.673043000   8.996157225   0.000000000
Al       2.234916817  14.130521212   0.000000000
Al       4.448337196  12.849570925   0.000000000
Al      13.369906209   2.567740006   0.000000000
Al      15.585709360   1.291181164   0.000000000
Al      11.135062742   6.438719177   0.000000000
Al      13.352756592   5.138610695   0.000000000
Al       8.905384792  10.321224088   0.000000000
Al      11.137463169   8.996153616   0.000000000
Al       6.711989060  14.120319343   0.000000000



     Writing output data file 32al_planar_2x2_vcr.save/
     NEW-OLD atomic charge density approx. for the potential

     negative rho (up, down):  7.553E-07 0.000E+00
     extrapolated charge   92.93685, renormalised to   93.00000

     total cpu time spent up to now is     1030.1 secs

     Self-consistent Calculation

     iteration #  1     ecut=    80.00 Ry     beta= 0.40
     Davidson diagonalization with overlap
     ethr =  1.00E-06,  avg # of iterations =  5.0

     negative rho (up, down):  3.845E-07 0.000E+00

     total cpu time spent up to now is     1061.3 secs

     total energy              =    -140.94022737 Ry
     Harris-Foulkes estimate   =    -141.25308480 Ry
     estimated scf accuracy    <       0.00020892 Ry

     iteration #  2     ecut=    80.00 Ry     beta= 0.40
     Davidson diagonalization with overlap
     ethr =  2.25E-07,  avg # of iterations =  5.0

     negative rho (up, down):  3.451E-07 0.000E+00

     total cpu time spent up to now is     1088.3 secs

     total energy              =    -140.94021141 Ry
     Harris-Foulkes estimate   =    -140.94048630 Ry
     estimated scf accuracy    <       0.00201540 Ry

     iteration #  3     ecut=    80.00 Ry     beta= 0.40
     Davidson diagonalization with overlap
     ethr =  2.25E-07,  avg # of iterations =  4.0

     negative rho (up, down):  2.286E-07 0.000E+00

     total cpu time spent up to now is     1110.2 secs

     total energy              =    -140.94033937 Ry
     Harris-Foulkes estimate   =    -140.94035611 Ry
     estimated scf accuracy    <       0.00007472 Ry

     iteration #  4     ecut=    80.00 Ry     beta= 0.40
     Davidson diagonalization with overlap
     ethr =  8.03E-08,  avg # of iterations =  4.0

     negative rho (up, down):  1.654E-07 0.000E+00

     total cpu time spent up to now is     1129.4 secs

     total energy              =    -140.94034080 Ry
     Harris-Foulkes estimate   =    -140.94034925 Ry
     estimated scf accuracy    <       0.00003519 Ry

     iteration #  5     ecut=    80.00 Ry     beta= 0.40
     Davidson diagonalization with overlap
     ethr =  3.78E-08,  avg # of iterations =  3.0

     negative rho (up, down):  8.474E-08 0.000E+00

     total cpu time spent up to now is     1149.5 secs

     total energy              =    -140.94034055 Ry
     Harris-Foulkes estimate   =    -140.94035189 Ry
     estimated scf accuracy    <       0.00007310 Ry

     iteration #  6     ecut=    80.00 Ry     beta= 0.40
     Davidson diagonalization with overlap
     ethr =  3.78E-08,  avg # of iterations =  2.0

     negative rho (up, down):  3.103E-08 0.000E+00

     total cpu time spent up to now is     1168.3 secs

     total energy              =    -140.94034582 Ry
     Harris-Foulkes estimate   =    -140.94034720 Ry
     estimated scf accuracy    <       0.00000637 Ry

     iteration #  7     ecut=    80.00 Ry     beta= 0.40
     Davidson diagonalization with overlap
     ethr =  6.84E-09,  avg # of iterations =  5.0

     negative rho (up, down):  1.922E-08 0.000E+00

     total cpu time spent up to now is     1190.6 secs

     total energy              =    -140.94034583 Ry
     Harris-Foulkes estimate   =    -140.94034816 Ry
     estimated scf accuracy    <       0.00001665 Ry

     iteration #  8     ecut=    80.00 Ry     beta= 0.40
     Davidson diagonalization with overlap
     ethr =  6.84E-09,  avg # of iterations =  3.0

     total cpu time spent up to now is     1209.6 secs

     End of self-consistent calculation

          k = 0.0000 0.0000 0.0000 (448403 PWs)   bands (ev):

    -9.9556  -9.4512  -9.4395  -9.4385  -9.4206  -9.4204  -9.1387  -8.4039
    -8.4026  -8.3909  -8.3749  -8.3745  -8.3105  -8.2450  -8.2445  -7.5825
    -6.9328  -6.9326  -6.8232  -6.4791  -6.4782  -6.4682  -6.3786  -6.3783
    -5.4886  -4.8299  -4.8279  -4.8276  -4.7383  -4.7381  -4.4731  -4.4650
    -4.4443  -4.4441  -4.1347  -4.1345  -3.9789  -3.4725  -3.4672  -3.4664
    -3.4578  -3.4573  -3.3935  -3.2695  -3.2689  -3.2555  -3.2179  -2.9601
    -2.9577  -2.9574  -2.9438  -2.5089  -2.5086  -2.4447  -2.4361  -2.4357

     the Fermi energy is    -3.0903 ev

!    total energy              =    -140.94034670 Ry
     Harris-Foulkes estimate   =    -140.94034693 Ry
     estimated scf accuracy    <       0.00000055 Ry

     The total energy is the sum of the following terms:

     one-electron contribution =    -502.47177085 Ry
     hartree contribution      =     259.97962582 Ry
     xc contribution           =     -61.32834818 Ry
     ewald contribution        =     162.95957765 Ry
     smearing contrib. (-TS)   =      -0.07943114 Ry

     convergence has been achieved in   8 iterations

     Forces acting on atoms (cartesian axes, Ry/au):

     atom    1 type  1   force =    -0.00001739    0.00023954    0.00000000
     atom    2 type  1   force =    -0.00071496   -0.00211054    0.00000000
     atom    3 type  1   force =    -0.00120941   -0.00069142    0.00000000
     atom    4 type  1   force =     0.00001630    0.00030653    0.00000000
     atom    5 type  1   force =     0.00013457   -0.00013346    0.00000000
     atom    6 type  1   force =     0.00023643   -0.00017058    0.00000000
     atom    7 type  1   force =    -0.01273027   -0.00729195    0.00000000
     atom    8 type  1   force =    -0.00214599    0.00036747    0.00000000
     atom    9 type  1   force =    -0.00203289   -0.00108245    0.00000000
     atom   10 type  1   force =    -0.00003367   -0.00005886    0.00000000
     atom   11 type  1   force =     0.00116171   -0.00070782    0.00000000
     atom   12 type  1   force =     0.00194542   -0.00109796    0.00000000
     atom   13 type  1   force =     0.00002891    0.00126112    0.00000000
     atom   14 type  1   force =    -0.00026503   -0.00012604    0.00000000
     atom   15 type  1   force =    -0.00194929   -0.00117198    0.00000000
     atom   16 type  1   force =     0.00000750    0.00232113    0.00000000
     atom   17 type  1   force =    -0.00000416    0.00000089    0.00000000
     atom   18 type  1   force =     0.00000358   -0.00006912    0.00000000
     atom   19 type  1   force =    -0.00015382    0.00228221    0.00000000
     atom   20 type  1   force =     0.00001650   -0.00002323    0.00000000
     atom   21 type  1   force =    -0.00013502   -0.00008828    0.00000000
     atom   22 type  1   force =     0.00134624    0.00173646    0.00000000
     atom   23 type  1   force =     0.00192464   -0.00117058    0.00000000
     atom   24 type  1   force =     0.00216257    0.00031017    0.00000000
     atom   25 type  1   force =     0.00207467   -0.00104396    0.00000000
     atom   26 type  1   force =     0.00072206   -0.00204909    0.00000000
     atom   27 type  1   force =     0.00017074    0.00227791    0.00000000
     atom   28 type  1   force =    -0.00194723   -0.00108853    0.00000000
     atom   29 type  1   force =     0.00001331    0.01470010    0.00000000
     atom   30 type  1   force =    -0.00136536    0.00172045    0.00000000
     atom   31 type  1   force =     0.01273934   -0.00734811    0.00000000

     Total force =     0.027000     Total SCF correction =     0.000391


     Computing stress (Cartesian axis) and pressure

          total   stress  (Ry/bohr**3)                   (kbar)     P=   -0.62
  -0.00000636  -0.00000003   0.00000000         -0.94     -0.00      0.00
  -0.00000003  -0.00000630   0.00000000         -0.00     -0.93      0.00
   0.00000000   0.00000000   0.00000004          0.00      0.00      0.01


     number of scf cycles    =   4
     number of bfgs steps    =   3

     enthalpy old            =    -140.9384650458 Ry
     enthalpy new            =    -140.9403467023 Ry

     CASE: enthalpy_new < enthalpy_old

     new trust radius        =       0.0511615700 bohr
     new conv_thr            =       0.0000010000 Ry

     new unit-cell volume =  37039.64527 a.u.^3 (  5488.70907 Ang^3 )
     density =      0.28119 g/cm^3

CELL_PARAMETERS (alat= 33.68096681)
   0.998771240  -0.000005691   0.000000000
  -0.499390548   0.864976395   0.000000000
   0.000000000   0.000000000   1.122132950

ATOMIC_POSITIONS (angstrom)
Al       0.000047220   2.565890932   0.000000000
Al       2.222627943   1.292251012   0.000000000
Al      -2.228049832   6.421940954   0.000000000
Al       0.000157721   5.143331548   0.000000000
Al      -4.453529145  10.279621840   0.000000000
Al      -2.221336205   8.991024805   0.000000000
Al      -6.731862602  14.099622726   0.000000000
Al      -4.445098425  12.841235342   0.000000000
Al       4.431302058   2.564089592   0.000000000
Al       6.681205067   1.287978984   0.000000000
Al       2.227889849   6.421871192   0.000000000
Al       4.459118696   5.134006359   0.000000000
Al      -0.000062080  10.280850959   0.000000000
Al       2.221561803   8.991066067   0.000000000
Al      -2.239314304  14.118284678   0.000000000
Al       0.000090840  12.857525596   0.000000000
Al       8.900714724   2.569406800   0.000000000
Al      11.120141435   1.287971125   0.000000000
Al       6.670343469   6.442516362   0.000000000
Al       8.900766185   5.132239020   0.000000000
Al       4.453379689  10.279552855   0.000000000
Al       6.667343174   8.991739639   0.000000000
Al       2.239028654  14.118286164   0.000000000
Al       4.445069344  12.840977164   0.000000000
Al      13.369973732   2.564326208   0.000000000
Al      15.578790419   1.292196749   0.000000000
Al      11.131031962   6.442439647   0.000000000
Al      13.342155491   5.133855931   0.000000000
Al       8.900792956  10.342962948   0.000000000
Al      11.133786169   8.991726456   0.000000000
Al       6.731915280  14.099576488   0.000000000



     Writing output data file 32al_planar_2x2_vcr.save/
     NEW-OLD atomic charge density approx. for the potential

     negative rho (up, down):  1.155E-06 0.000E+00
     extrapolated charge   92.90400, renormalised to   93.00000

     total cpu time spent up to now is     1281.5 secs

     Self-consistent Calculation

     iteration #  1     ecut=    80.00 Ry     beta= 0.40
     Davidson diagonalization with overlap
     ethr =  1.00E-06,  avg # of iterations =  6.0

     negative rho (up, down):  5.971E-07 0.000E+00

     total cpu time spent up to now is     1316.3 secs

     total energy              =    -140.94271136 Ry
     Harris-Foulkes estimate   =    -141.41866628 Ry
     estimated scf accuracy    <       0.00041785 Ry

     iteration #  2     ecut=    80.00 Ry     beta= 0.40
     Davidson diagonalization with overlap
     ethr =  4.49E-07,  avg # of iterations =  5.0

     negative rho (up, down):  5.392E-07 0.000E+00

     total cpu time spent up to now is     1344.6 secs

     total energy              =    -140.94266507 Ry
     Harris-Foulkes estimate   =    -140.94328448 Ry
     estimated scf accuracy    <       0.00474190 Ry

     iteration #  3     ecut=    80.00 Ry     beta= 0.40
     Davidson diagonalization with overlap
     ethr =  4.49E-07,  avg # of iterations =  4.0

     negative rho (up, down):  3.637E-07 0.000E+00

     total cpu time spent up to now is     1367.8 secs

     total energy              =    -140.94295228 Ry
     Harris-Foulkes estimate   =    -140.94298194 Ry
     estimated scf accuracy    <       0.00013313 Ry

     iteration #  4     ecut=    80.00 Ry     beta= 0.40
     Davidson diagonalization with overlap
     ethr =  1.43E-07,  avg # of iterations =  3.0

     negative rho (up, down):  2.752E-07 0.000E+00

     total cpu time spent up to now is     1387.2 secs

     total energy              =    -140.94295020 Ry
     Harris-Foulkes estimate   =    -140.94296885 Ry
     estimated scf accuracy    <       0.00007845 Ry

     iteration #  5     ecut=    80.00 Ry     beta= 0.40
     Davidson diagonalization with overlap
     ethr =  8.44E-08,  avg # of iterations =  3.0

     negative rho (up, down):  1.226E-07 0.000E+00

     total cpu time spent up to now is     1406.7 secs

     total energy              =    -140.94295062 Ry
     Harris-Foulkes estimate   =    -140.94297340 Ry
     estimated scf accuracy    <       0.00014876 Ry

     iteration #  6     ecut=    80.00 Ry     beta= 0.40
     Davidson diagonalization with overlap
     ethr =  8.44E-08,  avg # of iterations =  2.0

     negative rho (up, down):  4.192E-08 0.000E+00

     total cpu time spent up to now is     1425.9 secs

     total energy              =    -140.94296077 Ry
     Harris-Foulkes estimate   =    -140.94296328 Ry
     estimated scf accuracy    <       0.00001175 Ry

     iteration #  7     ecut=    80.00 Ry     beta= 0.40
     Davidson diagonalization with overlap
     ethr =  1.26E-08,  avg # of iterations =  5.0

     negative rho (up, down):  2.843E-08 0.000E+00

     total cpu time spent up to now is     1449.3 secs

     total energy              =    -140.94296135 Ry
     Harris-Foulkes estimate   =    -140.94296471 Ry
     estimated scf accuracy    <       0.00002425 Ry

     iteration #  8     ecut=    80.00 Ry     beta= 0.40
     Davidson diagonalization with overlap
     ethr =  1.26E-08,  avg # of iterations =  3.0

     negative rho (up, down):  1.263E-08 0.000E+00

     total cpu time spent up to now is     1469.9 secs

     total energy              =    -140.94296252 Ry
     Harris-Foulkes estimate   =    -140.94296281 Ry
     estimated scf accuracy    <       0.00000134 Ry

     iteration #  9     ecut=    80.00 Ry     beta= 0.40
     Davidson diagonalization with overlap
     c_bands:  1 eigenvalues not converged
     ethr =  1.44E-09,  avg # of iterations = 20.0

     negative rho (up, down):  1.239E-08 0.000E+00

     total cpu time spent up to now is     1501.0 secs

     total energy              =    -140.94288754 Ry
     Harris-Foulkes estimate   =    -140.94288725 Ry
     estimated scf accuracy    <       0.00007232 Ry

     iteration # 10     ecut=    80.00 Ry     beta= 0.40
     Davidson diagonalization with overlap
     ethr =  1.44E-09,  avg # of iterations = 11.0

     negative rho (up, down):  1.381E-08 0.000E+00

     total cpu time spent up to now is     1522.2 secs

     total energy              =    -140.94287840 Ry
     Harris-Foulkes estimate   =    -140.94287879 Ry
     estimated scf accuracy    <       0.00007694 Ry

     iteration # 11     ecut=    80.00 Ry     beta= 0.40
     Davidson diagonalization with overlap
     ethr =  1.44E-09,  avg # of iterations =  1.0

     negative rho (up, down):  1.706E-08 0.000E+00

     total cpu time spent up to now is     1540.2 secs

     total energy              =    -140.94287837 Ry
     Harris-Foulkes estimate   =    -140.94287832 Ry
     estimated scf accuracy    <       0.00007386 Ry

     iteration # 12     ecut=    80.00 Ry     beta= 0.40
     Davidson diagonalization with overlap
     ethr =  1.44E-09,  avg # of iterations =  1.0

     negative rho (up, down):  1.104E-08 0.000E+00

     total cpu time spent up to now is     1558.3 secs

     total energy              =    -140.94287864 Ry
     Harris-Foulkes estimate   =    -140.94287834 Ry
     estimated scf accuracy    <       0.00007463 Ry

     iteration # 13     ecut=    80.00 Ry     beta= 0.40
     Davidson diagonalization with overlap
     ethr =  1.44E-09,  avg # of iterations =  4.0

     total cpu time spent up to now is     1579.6 secs

     total energy              =    -140.94287864 Ry
     Harris-Foulkes estimate   =    -140.94287877 Ry
     estimated scf accuracy    <       0.00007743 Ry

     iteration # 14     ecut=    80.00 Ry     beta= 0.40
     Davidson diagonalization with overlap
     ethr =  1.44E-09,  avg # of iterations =  1.0

     total cpu time spent up to now is     1598.8 secs

     total energy              =    -140.94287954 Ry
     Harris-Foulkes estimate   =    -140.94287871 Ry
     estimated scf accuracy    <       0.00007795 Ry

     iteration # 15     ecut=    80.00 Ry     beta= 0.40
     Davidson diagonalization with overlap
     ethr =  1.44E-09,  avg # of iterations =  3.0

     total cpu time spent up to now is     1619.1 secs

     total energy              =    -140.94287998 Ry
     Harris-Foulkes estimate   =    -140.94287969 Ry
     estimated scf accuracy    <       0.00008060 Ry

     iteration # 16     ecut=    80.00 Ry     beta= 0.40
     Davidson diagonalization with overlap
     ethr =  1.44E-09,  avg # of iterations =  1.0

     total cpu time spent up to now is     1637.4 secs

     total energy              =    -140.94287978 Ry
     Harris-Foulkes estimate   =    -140.94288000 Ry
     estimated scf accuracy    <       0.00008125 Ry

     iteration # 17     ecut=    80.00 Ry     beta= 0.40
     Davidson diagonalization with overlap
     ethr =  1.44E-09,  avg # of iterations =  1.0

     negative rho (up, down):  2.262E-07 0.000E+00

     total cpu time spent up to now is     1655.7 secs

     total energy              =    -140.94285612 Ry
     Harris-Foulkes estimate   =    -140.94287991 Ry
     estimated scf accuracy    <       0.00008080 Ry

     iteration # 18     ecut=    80.00 Ry     beta= 0.40
     Davidson diagonalization with overlap
     ethr =  1.44E-09,  avg # of iterations = 10.0

     negative rho (up, down):  1.210E-08 0.000E+00

     total cpu time spent up to now is     1699.3 secs

     total energy              =    -140.94284301 Ry
     Harris-Foulkes estimate   =    -140.94289345 Ry
     estimated scf accuracy    <       0.00018528 Ry

     iteration # 19     ecut=    80.00 Ry     beta= 0.40
     Davidson diagonalization with overlap
     ethr =  1.44E-09,  avg # of iterations = 11.0

     total cpu time spent up to now is     1743.8 secs

     total energy              =    -140.94286149 Ry
     Harris-Foulkes estimate   =    -140.94287400 Ry
     estimated scf accuracy    <       0.00007384 Ry

     iteration # 20     ecut=    80.00 Ry     beta= 0.40
     Davidson diagonalization with overlap
     ethr =  1.44E-09,  avg # of iterations =  8.0

     total cpu time spent up to now is     1776.3 secs

     total energy              =    -140.94286573 Ry
     Harris-Foulkes estimate   =    -140.94287042 Ry
     estimated scf accuracy    <       0.00003127 Ry

     iteration # 21     ecut=    80.00 Ry     beta= 0.40
     Davidson diagonalization with overlap
     ethr =  1.44E-09,  avg # of iterations =  5.0

     total cpu time spent up to now is     1805.0 secs

     total energy              =    -140.94286742 Ry
     Harris-Foulkes estimate   =    -140.94286858 Ry
     estimated scf accuracy    <       0.00000510 Ry

     iteration # 22     ecut=    80.00 Ry     beta= 0.40
     Davidson diagonalization with overlap
     ethr =  1.44E-09,  avg # of iterations =  5.0

     total cpu time spent up to now is     1830.0 secs

     total energy              =    -140.94286709 Ry
     Harris-Foulkes estimate   =    -140.94286910 Ry
     estimated scf accuracy    <       0.00001435 Ry

     iteration # 23     ecut=    80.00 Ry     beta= 0.40
     Davidson diagonalization with overlap
     ethr =  1.44E-09,  avg # of iterations =  5.0

     total cpu time spent up to now is     1854.9 secs

     total energy              =    -140.94286790 Ry
     Harris-Foulkes estimate   =    -140.94286835 Ry
     estimated scf accuracy    <       0.00000266 Ry

     iteration # 24     ecut=    80.00 Ry     beta= 0.40
     Davidson diagonalization with overlap
     ethr =  1.44E-09,  avg # of iterations =  4.0

     total cpu time spent up to now is     1878.3 secs

     total energy              =    -140.94286806 Ry
     Harris-Foulkes estimate   =    -140.94286830 Ry
     estimated scf accuracy    <       0.00000176 Ry

     iteration # 25     ecut=    80.00 Ry     beta= 0.40
     Davidson diagonalization with overlap
     ethr =  1.44E-09,  avg # of iterations =  1.0

     total cpu time spent up to now is     1898.0 secs

     End of self-consistent calculation

          k = 0.0000 0.0000 0.0000 (448403 PWs)   bands (ev):

    -9.9574  -9.4513  -9.4445  -9.4444  -9.4175  -9.4173  -9.1343  -8.4036
    -8.4032  -8.3999  -8.3662  -8.3660  -8.3145  -8.2350  -8.2349  -7.5790
    -6.9331  -6.9329  -6.8246  -6.4790  -6.4786  -6.4586  -6.3819  -6.3817
    -5.5054  -4.8254  -4.8181  -4.8179  -4.7385  -4.7382  -4.4686  -4.4617
    -4.4459  -4.4457  -4.1439  -4.1438  -3.9797  -3.4716  -3.4692  -3.4691
    -3.4558  -3.4557  -3.3874  -3.2889  -3.2656  -3.2655  -3.2151  -2.9615
    -2.9515  -2.9514  -2.9357  -2.5013  -2.5009  -2.4458  -2.4432  -2.4430

     the Fermi energy is    -3.0900 ev

!    total energy              =    -140.94286798 Ry
     Harris-Foulkes estimate   =    -140.94286819 Ry
     estimated scf accuracy    <       0.00000025 Ry

     The total energy is the sum of the following terms:

     one-electron contribution =    -502.78706241 Ry
     hartree contribution      =     260.13242687 Ry
     xc contribution           =     -61.32304281 Ry
     ewald contribution        =     163.11330470 Ry
     smearing contrib. (-TS)   =      -0.07849432 Ry

     convergence has been achieved in  25 iterations

     Forces acting on atoms (cartesian axes, Ry/au):

     atom    1 type  1   force =     0.00000516    0.00115657    0.00000000
     atom    2 type  1   force =    -0.00109198   -0.00548188    0.00000000
     atom    3 type  1   force =    -0.00129443   -0.00073916    0.00000000
     atom    4 type  1   force =    -0.00006544   -0.00027430    0.00000000
     atom    5 type  1   force =     0.00105190   -0.00054124    0.00000000
     atom    6 type  1   force =    -0.00026563    0.00006266    0.00000000
     atom    7 type  1   force =    -0.01265790   -0.00734059    0.00000000
     atom    8 type  1   force =    -0.00531872    0.00182568    0.00000000
     atom    9 type  1   force =     0.00016604   -0.00061617    0.00000000
     atom   10 type  1   force =    -0.00098071   -0.00053949    0.00000000
     atom   11 type  1   force =     0.00136141   -0.00068262    0.00000000
     atom   12 type  1   force =     0.00215376   -0.00136860    0.00000000
     atom   13 type  1   force =     0.00004970    0.00162535    0.00000000
     atom   14 type  1   force =     0.00017185    0.00004358    0.00000000
     atom   15 type  1   force =    -0.00048626    0.00043903    0.00000000
     atom   16 type  1   force =    -0.00005706    0.00247255    0.00000000
     atom   17 type  1   force =    -0.00000747    0.00000380    0.00000000
     atom   18 type  1   force =     0.00099944   -0.00055123    0.00000000
     atom   19 type  1   force =     0.00076690    0.00030410    0.00000000
     atom   20 type  1   force =    -0.00002742    0.00116802    0.00000000
     atom   21 type  1   force =    -0.00099703   -0.00053895    0.00000000
     atom   22 type  1   force =     0.00432754    0.00358637    0.00000000
     atom   23 type  1   force =     0.00061619    0.00044745    0.00000000
     atom   24 type  1   force =     0.00528531    0.00191059    0.00000000
     atom   25 type  1   force =    -0.00013103   -0.00072034    0.00000000
     atom   26 type  1   force =     0.00103595   -0.00545921    0.00000000
     atom   27 type  1   force =    -0.00074501    0.00032993    0.00000000
     atom   28 type  1   force =    -0.00215800   -0.00130532    0.00000000
     atom   29 type  1   force =    -0.00006029    0.01460743    0.00000000
     atom   30 type  1   force =    -0.00427457    0.00354440    0.00000000
     atom   31 type  1   force =     0.01262782   -0.00736840    0.00000000

     Total force =     0.029438     Total SCF correction =     0.000391


     Computing stress (Cartesian axis) and pressure

          total   stress  (Ry/bohr**3)                   (kbar)     P=   -0.66
  -0.00000666   0.00000002   0.00000000         -0.98      0.00      0.00
   0.00000002  -0.00000671   0.00000000          0.00     -0.99      0.00
   0.00000000   0.00000000   0.00000001          0.00      0.00      0.00


     number of scf cycles    =   5
     number of bfgs steps    =   4

     enthalpy old            =    -140.9403467023 Ry
     enthalpy new            =    -140.9428679754 Ry

     CASE: enthalpy_new < enthalpy_old

     new trust radius        =       0.0767029538 bohr
     new conv_thr            =       0.0000010000 Ry

     new unit-cell volume =  36981.72392 a.u.^3 (  5480.12602 Ang^3 )
     density =      0.28163 g/cm^3

CELL_PARAMETERS (alat= 33.68096681)
   0.997987655  -0.000007682   0.000000000
  -0.499000480   0.864302859   0.000000000
   0.000000000   0.000000000   1.122132950

ATOMIC_POSITIONS (angstrom)
Al       0.000082844   2.562589976   0.000000000
Al       2.218919058   1.292310232   0.000000000
Al      -2.228352349   6.415728104   0.000000000
Al       0.000186789   5.141457200   0.000000000
Al      -4.451132118  10.272284229   0.000000000
Al      -2.217755714   8.982993063   0.000000000
Al      -6.761671972  14.068398135   0.000000000
Al      -4.441714472  12.829029443   0.000000000
Al       4.418281917   2.559124719   0.000000000
Al       6.678402631   1.288407811   0.000000000
Al       2.228178387   6.415652236   0.000000000
Al       4.461174657   5.126763679   0.000000000
Al      -0.000089085  10.275206247   0.000000000
Al       2.218035061   8.983014661   0.000000000
Al      -2.244934274  14.100492300   0.000000000
Al       0.000076261  12.853934778   0.000000000
Al       8.893744692   2.567368618   0.000000000
Al      11.108979165   1.288386731   0.000000000
Al       6.662895130   6.447179012   0.000000000
Al       8.893784953   5.125407903   0.000000000
Al       4.450913507  10.272143550   0.000000000
Al       6.660131936   8.985871352   0.000000000
Al       2.244574577  14.100502464   0.000000000
Al       4.441586869  12.828703555   0.000000000
Al      13.368972452   2.559395530   0.000000000
Al      15.568499943   1.292195434   0.000000000
Al      11.124522529   6.447071340   0.000000000
Al      13.326030434   5.126545180   0.000000000
Al       8.893824070  10.375437202   0.000000000
Al      11.126899205   8.985835965   0.000000000
Al       6.761721936  14.068328701   0.000000000



     Writing output data file 32al_planar_2x2_vcr.save/
     NEW-OLD atomic charge density approx. for the potential

     negative rho (up, down):  1.734E-06 0.000E+00
     extrapolated charge   92.85446, renormalised to   93.00000

     total cpu time spent up to now is     1968.7 secs

     Self-consistent Calculation

     iteration #  1     ecut=    80.00 Ry     beta= 0.40
     Davidson diagonalization with overlap
     ethr =  1.00E-06,  avg # of iterations =  8.0

     negative rho (up, down):  9.127E-07 0.000E+00

     total cpu time spent up to now is     2007.7 secs

     total energy              =    -140.94606285 Ry
     Harris-Foulkes estimate   =    -141.66833970 Ry
     estimated scf accuracy    <       0.00073594 Ry

     iteration #  2     ecut=    80.00 Ry     beta= 0.40
     Davidson diagonalization with overlap
     ethr =  7.91E-07,  avg # of iterations =  6.0

     negative rho (up, down):  8.170E-07 0.000E+00

     total cpu time spent up to now is     2035.9 secs

     total energy              =    -140.94613351 Ry
     Harris-Foulkes estimate   =    -140.94699334 Ry
     estimated scf accuracy    <       0.00614193 Ry

     iteration #  3     ecut=    80.00 Ry     beta= 0.40
     Davidson diagonalization with overlap
     ethr =  7.91E-07,  avg # of iterations =  4.0

     negative rho (up, down):  5.652E-07 0.000E+00

     total cpu time spent up to now is     2058.0 secs

     total energy              =    -140.94652105 Ry
     Harris-Foulkes estimate   =    -140.94658436 Ry
     estimated scf accuracy    <       0.00029203 Ry

     iteration #  4     ecut=    80.00 Ry     beta= 0.40
     Davidson diagonalization with overlap
     ethr =  3.14E-07,  avg # of iterations =  2.0

     negative rho (up, down):  3.468E-07 0.000E+00

     total cpu time spent up to now is     2077.0 secs

     total energy              =    -140.94652849 Ry
     Harris-Foulkes estimate   =    -140.94655034 Ry
     estimated scf accuracy    <       0.00010858 Ry

     iteration #  5     ecut=    80.00 Ry     beta= 0.40
     Davidson diagonalization with overlap
     ethr =  1.17E-07,  avg # of iterations =  4.0

     negative rho (up, down):  1.876E-07 0.000E+00

     total cpu time spent up to now is     2099.5 secs

     total energy              =    -140.94651357 Ry
     Harris-Foulkes estimate   =    -140.94655899 Ry
     estimated scf accuracy    <       0.00025615 Ry

     iteration #  6     ecut=    80.00 Ry     beta= 0.40
     Davidson diagonalization with overlap
     ethr =  1.17E-07,  avg # of iterations =  4.0

     negative rho (up, down):  5.372E-08 0.000E+00

     total cpu time spent up to now is     2120.7 secs

     total energy              =    -140.94653615 Ry
     Harris-Foulkes estimate   =    -140.94654657 Ry
     estimated scf accuracy    <       0.00007121 Ry

     iteration #  7     ecut=    80.00 Ry     beta= 0.40
     Davidson diagonalization with overlap
     ethr =  7.66E-08,  avg # of iterations =  1.0

     negative rho (up, down):  3.349E-08 0.000E+00

     total cpu time spent up to now is     2141.5 secs

     total energy              =    -140.94654116 Ry
     Harris-Foulkes estimate   =    -140.94654225 Ry
     estimated scf accuracy    <       0.00000670 Ry

     iteration #  8     ecut=    80.00 Ry     beta= 0.40
     Davidson diagonalization with overlap
     ethr =  7.20E-09,  avg # of iterations =  5.0

     negative rho (up, down):  1.590E-08 0.000E+00

     total cpu time spent up to now is     2170.1 secs

     total energy              =    -140.94654224 Ry
     Harris-Foulkes estimate   =    -140.94654395 Ry
     estimated scf accuracy    <       0.00001304 Ry

     iteration #  9     ecut=    80.00 Ry     beta= 0.40
     Davidson diagonalization with overlap
     ethr =  7.20E-09,  avg # of iterations =  3.0

     total cpu time spent up to now is     2190.9 secs

     total energy              =    -140.94654288 Ry
     Harris-Foulkes estimate   =    -140.94654321 Ry
     estimated scf accuracy    <       0.00000300 Ry

     iteration # 10     ecut=    80.00 Ry     beta= 0.40
     Davidson diagonalization with overlap
     ethr =  3.23E-09,  avg # of iterations =  3.0

     total cpu time spent up to now is     2211.1 secs

     total energy              =    -140.94654290 Ry
     Harris-Foulkes estimate   =    -140.94654312 Ry
     estimated scf accuracy    <       0.00000197 Ry

     iteration # 11     ecut=    80.00 Ry     beta= 0.40
     Davidson diagonalization with overlap
     ethr =  2.11E-09,  avg # of iterations =  1.0

     total cpu time spent up to now is     2229.3 secs

     End of self-consistent calculation

          k = 0.0000 0.0000 0.0000 (448403 PWs)   bands (ev):

    -9.9603  -9.4538  -9.4514  -9.4513  -9.4121  -9.4118  -9.1298  -8.4082
    -8.4027  -8.4024  -8.3592  -8.3590  -8.3197  -8.2192  -8.2191  -7.5775
    -6.9343  -6.9340  -6.8260  -6.4784  -6.4781  -6.4443  -6.3857  -6.3856
    -5.5304  -4.8181  -4.8058  -4.8056  -4.7365  -4.7362  -4.4637  -4.4574
    -4.4472  -4.4470  -4.1569  -4.1567  -3.9808  -3.4725  -3.4724  -3.4720
    -3.4509  -3.4507  -3.3782  -3.3417  -3.2597  -3.2597  -3.2130  -2.9671
    -2.9431  -2.9429  -2.9165  -2.4910  -2.4906  -2.4513  -2.4409  -2.4407

     the Fermi energy is    -3.0891 ev

!    total energy              =    -140.94654226 Ry
     Harris-Foulkes estimate   =    -140.94654304 Ry
     estimated scf accuracy    <       0.00000086 Ry

     The total energy is the sum of the following terms:

     one-electron contribution =    -503.27959488 Ry
     hartree contribution      =     260.37496193 Ry
     xc contribution           =     -61.31679599 Ry
     ewald contribution        =     163.35121420 Ry
     smearing contrib. (-TS)   =      -0.07632751 Ry

     convergence has been achieved in  11 iterations

     Forces acting on atoms (cartesian axes, Ry/au):

     atom    1 type  1   force =    -0.00001017    0.00200907    0.00000000
     atom    2 type  1   force =    -0.00135651   -0.00965383    0.00000000
     atom    3 type  1   force =    -0.00194967   -0.00108877    0.00000000
     atom    4 type  1   force =    -0.00008246   -0.00089728    0.00000000
     atom    5 type  1   force =     0.00177075   -0.00097322    0.00000000
     atom    6 type  1   force =    -0.00080131    0.00035531    0.00000000
     atom    7 type  1   force =    -0.01293604   -0.00750842    0.00000000
     atom    8 type  1   force =    -0.00904729    0.00365951    0.00000000
     atom    9 type  1   force =     0.00265224   -0.00041110    0.00000000
     atom   10 type  1   force =    -0.00235254   -0.00134942    0.00000000
     atom   11 type  1   force =     0.00202078   -0.00103532    0.00000000
     atom   12 type  1   force =     0.00197373   -0.00126386    0.00000000
     atom   13 type  1   force =     0.00005332    0.00235441    0.00000000
     atom   14 type  1   force =     0.00066378    0.00034072    0.00000000
     atom   15 type  1   force =     0.00092845    0.00249528    0.00000000
     atom   16 type  1   force =    -0.00007483    0.00226235    0.00000000
     atom   17 type  1   force =    -0.00002022    0.00001633    0.00000000
     atom   18 type  1   force =     0.00237740   -0.00135314    0.00000000
     atom   19 type  1   force =     0.00182657   -0.00192163    0.00000000
     atom   20 type  1   force =    -0.00001871    0.00273799    0.00000000
     atom   21 type  1   force =    -0.00170112   -0.00094605    0.00000000
     atom   22 type  1   force =     0.00780308    0.00590290    0.00000000
     atom   23 type  1   force =    -0.00079237    0.00249502    0.00000000
     atom   24 type  1   force =     0.00901501    0.00373761    0.00000000
     atom   25 type  1   force =    -0.00259055   -0.00053599    0.00000000
     atom   26 type  1   force =     0.00130337   -0.00958797    0.00000000
     atom   27 type  1   force =    -0.00181920   -0.00187033    0.00000000
     atom   28 type  1   force =    -0.00195896   -0.00118288    0.00000000
     atom   29 type  1   force =    -0.00006313    0.01491710    0.00000000
     atom   30 type  1   force =    -0.00772549    0.00584050    0.00000000
     atom   31 type  1   force =     0.01291207   -0.00754490    0.00000000

     Total force =     0.036721     Total SCF correction =     0.000792


     Computing stress (Cartesian axis) and pressure

          total   stress  (Ry/bohr**3)                   (kbar)     P=   -0.70
  -0.00000714   0.00000002   0.00000000         -1.05      0.00      0.00
   0.00000002  -0.00000721   0.00000000          0.00     -1.06      0.00
   0.00000000   0.00000000   0.00000001          0.00      0.00      0.00


     number of scf cycles    =   6
     number of bfgs steps    =   5

     enthalpy old            =    -140.9428679754 Ry
     enthalpy new            =    -140.9465422566 Ry

     CASE: enthalpy_new < enthalpy_old

     new trust radius        =       0.1149647075 bohr
     new conv_thr            =       0.0000010000 Ry

     new unit-cell volume =  36894.64164 a.u.^3 (  5467.22176 Ang^3 )
     density =      0.28230 g/cm^3

CELL_PARAMETERS (alat= 33.68096681)
   0.996808248  -0.000010916   0.000000000
  -0.498413578   0.863289494   0.000000000
   0.000000000   0.000000000   1.122132950

ATOMIC_POSITIONS (angstrom)
Al       0.000129117   2.557857761   0.000000000
Al       2.213277677   1.290944653   0.000000000
Al      -2.229069047   6.406243970   0.000000000
Al       0.000232200   5.138427293   0.000000000
Al      -4.447341497  10.261119108   0.000000000
Al      -2.212543779   8.971015817   0.000000000
Al      -6.806260041  14.021570900   0.000000000
Al      -4.437903234  12.811320345   0.000000000
Al       4.399640896   2.551733216   0.000000000
Al       6.673671075   1.288742516   0.000000000
Al       2.228862151   6.406146837   0.000000000
Al       4.464066655   5.116003462   0.000000000
Al      -0.000138747  10.266975234   0.000000000
Al       2.212893740   8.971012336   0.000000000
Al      -2.252840796  14.074510804   0.000000000
Al       0.000051033  12.848302870   0.000000000
Al       8.883247377   2.564304291   0.000000000
Al      11.092691097   1.288707511   0.000000000
Al       6.652057072   6.453317169   0.000000000
Al       8.883286443   5.115704351   0.000000000
Al       4.447014697  10.260880033   0.000000000
Al       6.650477413   8.977839643   0.000000000
Al       2.252343209  14.074526268   0.000000000
Al       4.437625698  12.810868062   0.000000000
Al      13.366515591   2.552061784   0.000000000
Al      15.553080210   1.290755558   0.000000000
Al      11.114336503   6.453171310   0.000000000
Al      13.301969789   5.115678254   0.000000000
Al       8.883341321  10.423989222   0.000000000
Al      11.115329273   8.977762576   0.000000000
Al       6.806310871  14.021462193   0.000000000



     Writing output data file 32al_planar_2x2_vcr.save/
     NEW-OLD atomic charge density approx. for the potential

     negative rho (up, down):  2.661E-06 0.000E+00
     extrapolated charge   92.78067, renormalised to   93.00000

     total cpu time spent up to now is     2302.0 secs

     Self-consistent Calculation

     iteration #  1     ecut=    80.00 Ry     beta= 0.40
     Davidson diagonalization with overlap
     ethr =  1.00E-06,  avg # of iterations =  9.0

     negative rho (up, down):  1.427E-06 0.000E+00

     total cpu time spent up to now is     2341.8 secs

     total energy              =    -140.95082225 Ry
     Harris-Foulkes estimate   =    -142.04117272 Ry
     estimated scf accuracy    <       0.00154595 Ry

     iteration #  2     ecut=    80.00 Ry     beta= 0.40
     Davidson diagonalization with overlap
     ethr =  1.66E-06,  avg # of iterations =  5.0

     negative rho (up, down):  1.275E-06 0.000E+00

     total cpu time spent up to now is     2369.8 secs

     total energy              =    -140.95101959 Ry
     Harris-Foulkes estimate   =    -140.95291329 Ry
     estimated scf accuracy    <       0.01338931 Ry

     iteration #  3     ecut=    80.00 Ry     beta= 0.40
     Davidson diagonalization with overlap
     ethr =  1.66E-06,  avg # of iterations =  4.0

     negative rho (up, down):  9.262E-07 0.000E+00

     total cpu time spent up to now is     2392.0 secs

     total energy              =    -140.95184445 Ry
     Harris-Foulkes estimate   =    -140.95198729 Ry
     estimated scf accuracy    <       0.00064316 Ry

     iteration #  4     ecut=    80.00 Ry     beta= 0.40
     Davidson diagonalization with overlap
     ethr =  6.92E-07,  avg # of iterations =  2.0

     negative rho (up, down):  6.368E-07 0.000E+00

     total cpu time spent up to now is     2411.8 secs

     total energy              =    -140.95186102 Ry
     Harris-Foulkes estimate   =    -140.95191545 Ry
     estimated scf accuracy    <       0.00030113 Ry

     iteration #  5     ecut=    80.00 Ry     beta= 0.40
     Davidson diagonalization with overlap
     ethr =  3.24E-07,  avg # of iterations =  3.0

     negative rho (up, down):  3.717E-07 0.000E+00

     total cpu time spent up to now is     2433.2 secs

     total energy              =    -140.95183350 Ry
     Harris-Foulkes estimate   =    -140.95192287 Ry
     estimated scf accuracy    <       0.00049665 Ry

     iteration #  6     ecut=    80.00 Ry     beta= 0.40
     Davidson diagonalization with overlap
     ethr =  3.24E-07,  avg # of iterations =  1.0

     negative rho (up, down):  8.147E-08 0.000E+00

     total cpu time spent up to now is     2452.4 secs

     total energy              =    -140.95187460 Ry
     Harris-Foulkes estimate   =    -140.95189301 Ry
     estimated scf accuracy    <       0.00010760 Ry

     iteration #  7     ecut=    80.00 Ry     beta= 0.40
     Davidson diagonalization with overlap
     ethr =  1.16E-07,  avg # of iterations =  5.0

     negative rho (up, down):  6.339E-08 0.000E+00

     total cpu time spent up to now is     2474.4 secs

     total energy              =    -140.95188537 Ry
     Harris-Foulkes estimate   =    -140.95189239 Ry
     estimated scf accuracy    <       0.00004675 Ry

     iteration #  8     ecut=    80.00 Ry     beta= 0.40
     Davidson diagonalization with overlap
     ethr =  5.03E-08,  avg # of iterations =  3.0

     negative rho (up, down):  3.512E-08 0.000E+00

     total cpu time spent up to now is     2494.8 secs

     total energy              =    -140.95188879 Ry
     Harris-Foulkes estimate   =    -140.95189051 Ry
     estimated scf accuracy    <       0.00000865 Ry

     iteration #  9     ecut=    80.00 Ry     beta= 0.40
     Davidson diagonalization with overlap
     ethr =  9.30E-09,  avg # of iterations =  5.0

     negative rho (up, down):  1.118E-08 0.000E+00

     total cpu time spent up to now is     2524.1 secs

     total energy              =    -140.95188964 Ry
     Harris-Foulkes estimate   =    -140.95189072 Ry
     estimated scf accuracy    <       0.00000572 Ry

     iteration # 10     ecut=    80.00 Ry     beta= 0.40
     Davidson diagonalization with overlap
     ethr =  6.15E-09,  avg # of iterations =  4.0

     total cpu time spent up to now is     2545.9 secs

     total energy              =    -140.95188937 Ry
     Harris-Foulkes estimate   =    -140.95189059 Ry
     estimated scf accuracy    <       0.00001006 Ry

     iteration # 11     ecut=    80.00 Ry     beta= 0.40
     Davidson diagonalization with overlap
     ethr =  6.15E-09,  avg # of iterations =  1.0

[...]

     negative rho (up, down):  2.394E-07 0.000E+00
     extrapolated charge   92.99871, renormalised to   93.00000

     total cpu time spent up to now is    88937.0 secs

     Self-consistent Calculation

     iteration #  1     ecut=    80.00 Ry     beta= 0.40
     Davidson diagonalization with overlap
     ethr =  1.00E-06,  avg # of iterations =  2.0

     Threshold (ethr) on eigenvalues was too large:
     Diagonalizing with lowered threshold

     Davidson diagonalization with overlap
     ethr =  1.23E-09,  avg # of iterations = 15.0

     negative rho (up, down):  1.219E-07 0.000E+00

     total cpu time spent up to now is    89000.2 secs

     total energy              =    -142.07538672 Ry
     Harris-Foulkes estimate   =    -142.08427829 Ry
     estimated scf accuracy    <       0.00001070 Ry

     iteration #  2     ecut=    80.00 Ry     beta= 0.40
     Davidson diagonalization with overlap
     ethr =  1.15E-08,  avg # of iterations =  8.0

     negative rho (up, down):  1.025E-07 0.000E+00

     total cpu time spent up to now is    89026.7 secs

     total energy              =    -142.07538563 Ry
     Harris-Foulkes estimate   =    -142.07539672 Ry
     estimated scf accuracy    <       0.00005198 Ry

     iteration #  3     ecut=    80.00 Ry     beta= 0.40
     Davidson diagonalization with overlap
     ethr =  1.15E-08,  avg # of iterations =  6.0

     negative rho (up, down):  7.076E-08 0.000E+00

     total cpu time spent up to now is    89051.4 secs

     total energy              =    -142.07539106 Ry
     Harris-Foulkes estimate   =    -142.07539140 Ry
     estimated scf accuracy    <       0.00000128 Ry

     iteration #  4     ecut=    80.00 Ry     beta= 0.40
     Davidson diagonalization with overlap
     ethr =  1.38E-09,  avg # of iterations =  5.0

     total cpu time spent up to now is    89073.2 secs

     End of self-consistent calculation

          k = 0.0000 0.0000 0.0000 (448403 PWs)   bands (ev):

   -11.5946 -10.9677 -10.8668 -10.7690 -10.6973 -10.5828 -10.1766  -9.2730
    -9.2452  -9.1553  -8.8938  -8.7237  -8.6995  -8.3382  -8.1923  -8.1619
    -8.0776  -7.8989  -7.7245  -6.2476  -6.2056  -6.1191  -6.0554  -5.8955
    -5.7313  -5.6738  -5.4581  -5.3159  -5.2754  -5.1961  -5.1475  -4.8526
    -4.4820  -4.4672  -4.1981  -4.1920  -4.1180  -4.0630  -4.0172  -3.9581
    -3.9558  -3.7171  -3.6741  -3.6623  -2.5626  -2.5485  -2.4568  -2.2851
    -2.1840  -2.1493  -1.9320  -1.8572  -1.7246  -1.7116  -1.6548  -1.5711

     the Fermi energy is    -2.4319 ev

!    total energy              =    -142.07539119 Ry
     Harris-Foulkes estimate   =    -142.07539128 Ry
     estimated scf accuracy    <       0.00000015 Ry

     The total energy is the sum of the following terms:

     one-electron contribution =    -684.63202257 Ry
     hartree contribution      =     351.07594379 Ry
     xc contribution           =     -63.67592043 Ry
     ewald contribution        =     255.18603988 Ry
     smearing contrib. (-TS)   =      -0.02943186 Ry

     convergence has been achieved in   4 iterations

     Forces acting on atoms (cartesian axes, Ry/au):

     atom    1 type  1   force =     0.00035757    0.00172569    0.00000000
     atom    2 type  1   force =    -0.00089945   -0.00146156    0.00000000
     atom    3 type  1   force =     0.00025544    0.00020066    0.00000000
     atom    4 type  1   force =    -0.00052431   -0.00047480    0.00000000
     atom    5 type  1   force =    -0.00058633   -0.00141903    0.00000000
     atom    6 type  1   force =     0.00039290    0.00219568    0.00000000
     atom    7 type  1   force =    -0.00010132   -0.00021819    0.00000000
     atom    8 type  1   force =     0.00027912    0.00013640    0.00000000
     atom    9 type  1   force =    -0.00073993   -0.00007194    0.00000000
     atom   10 type  1   force =     0.00071766    0.00033163    0.00000000
     atom   11 type  1   force =    -0.00162650    0.00281661    0.00000000
     atom   12 type  1   force =     0.00004950   -0.00179014    0.00000000
     atom   13 type  1   force =     0.00159887   -0.00089816    0.00000000
     atom   14 type  1   force =     0.00072993   -0.00158789    0.00000000
     atom   15 type  1   force =     0.00186102    0.00031478    0.00000000
     atom   16 type  1   force =    -0.00086852   -0.00109049    0.00000000
     atom   17 type  1   force =     0.00035167   -0.00251905    0.00000000
     atom   18 type  1   force =     0.00039890    0.00141981    0.00000000
     atom   19 type  1   force =     0.00003979    0.00173647    0.00000000
     atom   20 type  1   force =     0.00022187   -0.00154373    0.00000000
     atom   21 type  1   force =     0.00021805    0.00013069    0.00000000
     atom   22 type  1   force =    -0.00267033    0.00071597    0.00000000
     atom   23 type  1   force =     0.00176183   -0.00052626    0.00000000
     atom   24 type  1   force =    -0.00103542   -0.00087436    0.00000000
     atom   25 type  1   force =    -0.00090055    0.00120485    0.00000000
     atom   26 type  1   force =    -0.00027521    0.00065127    0.00000000
     atom   27 type  1   force =     0.00047509    0.00123367    0.00000000
     atom   28 type  1   force =    -0.00026828   -0.00076723    0.00000000
     atom   29 type  1   force =    -0.00002154   -0.00097889    0.00000000
     atom   30 type  1   force =    -0.00040816    0.00194460    0.00000000
     atom   31 type  1   force =     0.00121665   -0.00053704    0.00000000

     Total force =     0.008938     Total SCF correction =     0.000342


     Computing stress (Cartesian axis) and pressure

          total   stress  (Ry/bohr**3)                   (kbar)     P=    0.10
   0.00000016   0.00000276   0.00000000          0.02      0.41      0.00
   0.00000276   0.00000197   0.00000000          0.41      0.29      0.00
   0.00000000   0.00000000  -0.00000002          0.00      0.00     -0.00


     number of scf cycles    = 299
     number of bfgs steps    = 252

     enthalpy old            =    -142.0755832020 Ry
     enthalpy new            =    -142.0753911884 Ry

     CASE: enthalpy_new > enthalpy_old

     new trust radius        =       0.0000226539 bohr

     trust_radius < trust_radius_min

     resetting bfgs history

     new conv_thr            =       0.0000001651 Ry

     new unit-cell volume =  26842.60688 a.u.^3 (  3977.66390 Ang^3 )
     density =      0.38801 g/cm^3

CELL_PARAMETERS (alat= 33.68096681)
   0.869649648   0.010697535   0.000000000
  -0.426029854   0.714676375   0.000000000
   0.000000000   0.000000000   1.122132950

ATOMIC_POSITIONS (angstrom)
Al      -0.659790034   3.163117907   0.000000000
Al       1.726392120   1.904946894   0.000000000
Al      -3.167971731   4.567204823   0.000000000
Al      -1.138997865   6.015476000   0.000000000
Al      -3.631949356   7.359418599   0.000000000
Al      -1.532220906   8.687647778   0.000000000
Al      -5.827504111  11.739827950   0.000000000
Al      -3.796011153  10.122786254   0.000000000
Al       3.549287916   3.833476850   0.000000000
Al       4.081896831   0.567125746   0.000000000
Al       1.267496032   4.844189065   0.000000000
Al       5.810544118   2.742679481   0.000000000
Al       0.631844413   9.860488482   0.000000000
Al       0.939869708   7.427005742   0.000000000
Al      -1.585479029  11.411442296   0.000000000
Al       0.809711149  12.281327560   0.000000000
Al       8.195616025   1.974695569   0.000000000
Al      10.627079917   0.642368257   0.000000000
Al       5.559774482   5.496320961   0.000000000
Al       7.862559351   4.527643512   0.000000000
Al       3.333921862   6.665549405   0.000000000
Al       7.380268352   7.434478730   0.000000000
Al       3.026017841  10.680444984   0.000000000
Al       5.053210610   8.882059831   0.000000000
Al      12.757770654   1.953178493   0.000000000
Al      15.054763171   0.585064930   0.000000000
Al       9.793916113   6.157244780   0.000000000
Al      10.288069518   3.337715005   0.000000000
Al       7.388827311  10.386123694   0.000000000
Al       9.550784438   8.902754148   0.000000000
Al       5.278684802  11.914621072   0.000000000



     Writing output data file 32al_planar_2x2_vcr.save/
     Check: negative starting charge=   -0.000132
     NEW-OLD atomic charge density approx. for the potential
     Check: negative starting charge=   -0.000132

     negative rho (up, down):  2.393E-07 0.000E+00
     extrapolated charge   93.00129, renormalised to   93.00000

     total cpu time spent up to now is    89144.3 secs

     Self-consistent Calculation

     iteration #  1     ecut=    80.00 Ry     beta= 0.40
     Davidson diagonalization with overlap
     ethr =  1.00E-06,  avg # of iterations =  2.0

     Threshold (ethr) on eigenvalues was too large:
     Diagonalizing with lowered threshold

     Davidson diagonalization with overlap
     ethr =  2.38E-09,  avg # of iterations = 13.0

     negative rho (up, down):  1.217E-07 0.000E+00

     total cpu time spent up to now is    89199.1 secs

     total energy              =    -142.07544856 Ry
     Harris-Foulkes estimate   =    -142.06657088 Ry
     estimated scf accuracy    <       0.00001301 Ry

     iteration #  2     ecut=    80.00 Ry     beta= 0.40
     Davidson diagonalization with overlap
     ethr =  1.40E-08,  avg # of iterations =  6.0

     negative rho (up, down):  1.028E-07 0.000E+00

     total cpu time spent up to now is    89224.8 secs

     total energy              =    -142.07544701 Ry
     Harris-Foulkes estimate   =    -142.07546125 Ry
     estimated scf accuracy    <       0.00006774 Ry

     iteration #  3     ecut=    80.00 Ry     beta= 0.40
     Davidson diagonalization with overlap
     ethr =  1.40E-08,  avg # of iterations =  6.0

     negative rho (up, down):  7.220E-08 0.000E+00

     total cpu time spent up to now is    89249.4 secs

     total energy              =    -142.07545396 Ry
     Harris-Foulkes estimate   =    -142.07545436 Ry
     estimated scf accuracy    <       0.00000151 Ry

     iteration #  4     ecut=    80.00 Ry     beta= 0.40
     Davidson diagonalization with overlap
     ethr =  1.63E-09,  avg # of iterations =  4.0

     negative rho (up, down):  4.554E-08 0.000E+00

     total cpu time spent up to now is    89271.1 secs

     total energy              =    -142.07545415 Ry
     Harris-Foulkes estimate   =    -142.07545423 Ry
     estimated scf accuracy    <       0.00000025 Ry

     iteration #  5     ecut=    80.00 Ry     beta= 0.40
     Davidson diagonalization with overlap
     ethr =  2.66E-10,  avg # of iterations =  5.0

     negative rho (up, down):  2.121E-08 0.000E+00

     total cpu time spent up to now is    89296.2 secs

     total energy              =    -142.07545420 Ry
     Harris-Foulkes estimate   =    -142.07545424 Ry
     estimated scf accuracy    <       0.00000020 Ry

     iteration #  6     ecut=    80.00 Ry     beta= 0.40
     Davidson diagonalization with overlap
     ethr =  2.18E-10,  avg # of iterations =  4.0

     total cpu time spent up to now is    89315.6 secs

     End of self-consistent calculation

          k = 0.0000 0.0000 0.0000 (448403 PWs)   bands (ev):

   -11.5945 -10.9676 -10.8665 -10.7683 -10.6968 -10.5832 -10.1774  -9.2721
    -9.2444  -9.1559  -8.8944  -8.7235  -8.6999  -8.3378  -8.1926  -8.1617
    -8.0781  -7.8994  -7.7246  -6.2471  -6.2050  -6.1193  -6.0559  -5.8958
    -5.7319  -5.6737  -5.4583  -5.3160  -5.2762  -5.1959  -5.1479  -4.8525
    -4.4820  -4.4675  -4.1977  -4.1919  -4.1178  -4.0626  -4.0170  -3.9584
    -3.9561  -3.7174  -3.6743  -3.6629  -2.5622  -2.5480  -2.4572  -2.2856
    -2.1836  -2.1499  -1.9321  -1.8574  -1.7243  -1.7121  -1.6553  -1.5709

     the Fermi energy is    -2.4320 ev

!    total energy              =    -142.07545421 Ry
     Harris-Foulkes estimate   =    -142.07545422 Ry
     estimated scf accuracy    <       0.00000001 Ry

     The total energy is the sum of the following terms:

     one-electron contribution =    -684.61726092 Ry
     hartree contribution      =     351.06838130 Ry
     xc contribution           =     -63.67534849 Ry
     ewald contribution        =     255.17826589 Ry
     smearing contrib. (-TS)   =      -0.02949199 Ry

     convergence has been achieved in   6 iterations

     Forces acting on atoms (cartesian axes, Ry/au):

     atom    1 type  1   force =     0.00010440    0.00157623    0.00000000
     atom    2 type  1   force =    -0.00072179   -0.00138257    0.00000000
     atom    3 type  1   force =     0.00010991    0.00005557    0.00000000
     atom    4 type  1   force =    -0.00044797   -0.00026243    0.00000000
     atom    5 type  1   force =    -0.00033341   -0.00110207    0.00000000
     atom    6 type  1   force =     0.00021376    0.00181927    0.00000000
     atom    7 type  1   force =    -0.00019437   -0.00019823    0.00000000
     atom    8 type  1   force =     0.00036040    0.00017680    0.00000000
     atom    9 type  1   force =    -0.00041185   -0.00016161    0.00000000
     atom   10 type  1   force =     0.00071792    0.00031693    0.00000000
     atom   11 type  1   force =    -0.00151631    0.00262824    0.00000000
     atom   12 type  1   force =    -0.00027290   -0.00158704    0.00000000
     atom   13 type  1   force =     0.00169058   -0.00096173    0.00000000
     atom   14 type  1   force =     0.00053543   -0.00135903    0.00000000
     atom   15 type  1   force =     0.00146170    0.00024982    0.00000000
     atom   16 type  1   force =    -0.00033375   -0.00097395    0.00000000
     atom   17 type  1   force =     0.00037996   -0.00232262    0.00000000
     atom   18 type  1   force =     0.00011881    0.00111177    0.00000000
     atom   19 type  1   force =     0.00012481    0.00134281    0.00000000
     atom   20 type  1   force =     0.00020043   -0.00135735    0.00000000
     atom   21 type  1   force =     0.00012539    0.00013985    0.00000000
     atom   22 type  1   force =    -0.00229691    0.00078130    0.00000000
     atom   23 type  1   force =     0.00161174   -0.00041424    0.00000000
     atom   24 type  1   force =    -0.00099428   -0.00085030    0.00000000
     atom   25 type  1   force =    -0.00059225    0.00134414    0.00000000
     atom   26 type  1   force =    -0.00029842    0.00061283    0.00000000
     atom   27 type  1   force =     0.00012049    0.00108228    0.00000000
     atom   28 type  1   force =    -0.00017422   -0.00067845    0.00000000
     atom   29 type  1   force =    -0.00000735   -0.00095283    0.00000000
     atom   30 type  1   force =    -0.00038951    0.00174988    0.00000000
     atom   31 type  1   force =     0.00110952   -0.00042327    0.00000000

     Total force =     0.007915     Total SCF correction =     0.000090


     Computing stress (Cartesian axis) and pressure

          total   stress  (Ry/bohr**3)                   (kbar)     P=    0.10
   0.00000011   0.00000267   0.00000000          0.02      0.39      0.00
   0.00000267   0.00000192   0.00000000          0.39      0.28      0.00
   0.00000000   0.00000000  -0.00000001          0.00      0.00     -0.00


     number of scf cycles    = 300
     number of bfgs steps    = 252

     enthalpy old            =    -142.0755832020 Ry
     enthalpy new            =    -142.0754542094 Ry

     CASE: enthalpy_new > enthalpy_old

     new trust radius        =       0.0005431509 bohr
     new conv_thr            =       0.0000001651 Ry

     new unit-cell volume =  26842.23374 a.u.^3 (  3977.60861 Ang^3 )
     density =      0.38802 g/cm^3

CELL_PARAMETERS (alat= 33.68096681)
   0.869653651   0.010674101   0.000000000
  -0.426051048   0.714674297   0.000000000
   0.000000000   0.000000000   1.122132950

ATOMIC_POSITIONS (angstrom)
Al      -0.660233249   3.162464415   0.000000000
Al       1.726859026   1.905355662   0.000000000
Al      -3.168185377   4.567041957   0.000000000
Al      -1.138933125   6.015558184   0.000000000
Al      -3.632085174   7.359940039   0.000000000
Al      -1.532610991   8.686419724   0.000000000
Al      -5.828012815  11.739894460   0.000000000
Al      -3.796474042  10.122513830   0.000000000
Al       3.549921004   3.833183093   0.000000000
Al       4.081818785   0.567172615   0.000000000
Al       1.267813982   4.843031390   0.000000000
Al       5.810150569   2.743187225   0.000000000
Al       0.630859292   9.860704225   0.000000000
Al       0.939408630   7.427370548   0.000000000
Al      -1.586836388  11.411167563   0.000000000
Al       0.809879084  12.281627543   0.000000000
Al       8.195461962   1.975390228   0.000000000
Al      10.626791903   0.641720433   0.000000000
Al       5.559725641   5.495079055   0.000000000
Al       7.862523605   4.528236305   0.000000000
Al       3.333663298   6.665341505   0.000000000
Al       7.381216343   7.433879315   0.000000000
Al       3.024999321  10.680296858   0.000000000
Al       5.053446641   8.882041844   0.000000000
Al      12.758287961   1.952541480   0.000000000
Al      15.054910802   0.584286253   0.000000000
Al       9.793651010   6.156527174   0.000000000
Al      10.288220916   3.337571140   0.000000000
Al       7.388766163  10.386072713   0.000000000
Al       9.550854680   8.901481936   0.000000000
Al       5.277870124  11.914464606   0.000000000



     Writing output data file 32al_planar_2x2_vcr.save/
     Check: negative starting charge=   -0.000132
     NEW-OLD atomic charge density approx. for the potential
     Check: negative starting charge=   -0.000132

     negative rho (up, down):  2.394E-07 0.000E+00
     extrapolated charge   92.99871, renormalised to   93.00000

     Writing output data file 32al_planar_2x2_vcr.save/
 
     init_run     :     25.37s CPU     28.96s WALL (       1 calls)
     electrons    :  55962.62s CPU  67879.04s WALL (     300 calls)
     update_pot   :   4801.00s CPU   4880.82s WALL (     300 calls)
     forces       :   4096.04s CPU   4254.38s WALL (     300 calls)
     stress       :  11808.77s CPU  12182.76s WALL (     300 calls)

     Called by init_run:
     wfcinit      :     12.29s CPU     15.36s WALL (       1 calls)
     potinit      :      5.05s CPU      5.30s WALL (       1 calls)
     hinit0       :      6.11s CPU      6.26s WALL (       1 calls)

     Called by electrons:
     c_bands      :  47023.04s CPU  56492.31s WALL (    2627 calls)
     sum_band     :   6030.72s CPU   7670.12s WALL (    2627 calls)
     v_of_rho     :   2597.83s CPU   3121.46s WALL (    2863 calls)
     mix_rho      :    460.92s CPU    711.84s WALL (    2627 calls)

     Called by c_bands:
     init_us_2    :    745.51s CPU    800.01s WALL (    5255 calls)
     cegterg      :  40026.39s CPU  49418.16s WALL (    2628 calls)

     Called by sum_band:

     Called by *egterg:
     h_psi        :  35213.84s CPU  44278.17s WALL (   17220 calls)
     g_psi        :    135.95s CPU    143.89s WALL (   14591 calls)
     cdiaghg      :    128.98s CPU    132.62s WALL (   16854 calls)

     Called by h_psi:
     h_psi:pot    :  35117.07s CPU  44033.13s WALL (   17220 calls)
     h_psi:calbec :   4622.93s CPU   4786.51s WALL (   17220 calls)
     vloc_psi     :  25636.71s CPU  34345.49s WALL (   17220 calls)
     add_vuspsi   :   4857.24s CPU   4900.99s WALL (   17220 calls)

     General routines
     calbec       :   5371.94s CPU   5555.68s WALL (   18720 calls)
     fft          :   2395.55s CPU   2824.07s WALL (   36497 calls)
     ffts         :    145.77s CPU    176.24s WALL (    2627 calls)
     fftw         :  26997.90s CPU  36898.83s WALL ( 1031688 calls)
 
     Parallel routines
     fft_scatt_xy :   5241.45s CPU   7381.71s WALL ( 1070812 calls)
     fft_scatt_yz :  10100.34s CPU  12178.25s WALL ( 1070812 calls)
 
     PWSCF        :    21h19m CPU        1d    0h49m WALL

 
   This run was terminated on:  10: 9:10  27Nov2020            

=------------------------------------------------------------------------------=
   JOB DONE.
=------------------------------------------------------------------------------=
