
     Program PWSCF v.6.3MaX starts on 25Nov2020 at 18: 6:36 

     This program is part of the open-source Quantum ESPRESSO suite
     for quantum simulation of materials; please cite
         "P. Giannozzi et al., J. Phys.:Condens. Matter 21 395502 (2009);
         "P. Giannozzi et al., J. Phys.:Condens. Matter 29 465901 (2017);
          URL http://www.quantum-espresso.org", 
     in publications or presentations arising from this work. More details at
     http://www.quantum-espresso.org/quote

     Parallel version (MPI), running on     8 processors

     MPI processes distributed on     3 nodes
     R & G space division:  proc/nbgrp/npool/nimage =       8
     Waiting for input...
     Reading input from standard input

     Current dimensions of program PWSCF are:
     Max number of different atomic species (ntypx) = 10
     Max number of k-points (npk) =  40000
     Max angular momentum in pseudopotentials (lmaxx) =  3

     Subspace diagonalization in iterative solution of the eigenvalue problem:
     a serial algorithm will be used

 
     Parallelization info
     --------------------
     sticks:   dense  smooth     PW     G-vecs:    dense   smooth      PW
     Min        1758    1758    438               252392   252392   31546
     Max        1759    1759    439               252397   252397   31551
     Sum       14071   14071   3505              2019149  2019149  252395
 


     bravais-lattice index     =            4
     lattice parameter (alat)  =      25.2607  a.u.
     unit-cell volume          =   20885.8003 (a.u.)^3
     number of atoms/cell      =           17
     number of atomic types    =            1
     number of electrons       =        51.00
     number of Kohn-Sham states=           31
     kinetic-energy cutoff     =      80.0000  Ry
     charge density cutoff     =     320.0000  Ry
     convergence threshold     =      1.0E-06
     mixing beta               =       0.4000
     number of iterations used =            8  plain     mixing
     Exchange-correlation      = PBE ( 1  4  3  4 0 0)
     nstep                     =          300


     celldm(1)=  25.260725  celldm(2)=   0.000000  celldm(3)=   1.496177
     celldm(4)=   0.000000  celldm(5)=   0.000000  celldm(6)=   0.000000

     crystal axes: (cart. coord. in units of alat)
               a(1) = (   1.000000   0.000000   0.000000 )  
               a(2) = (  -0.500000   0.866025   0.000000 )  
               a(3) = (   0.000000   0.000000   1.496177 )  

     reciprocal axes: (cart. coord. in units 2 pi/alat)
               b(1) = (  1.000000  0.577350  0.000000 )  
               b(2) = (  0.000000  1.154701  0.000000 )  
               b(3) = (  0.000000  0.000000  0.668370 )  


     PseudoPot. # 1 for Al read from file:
     ./Al.upf
     MD5 check sum: 4974d48a734c9d7d1eb6780a1419d19d
     Pseudo is Norm-conserving + core correction, Zval =  3.0
     Generated using ONCVPSP code by D. R. Hamann
     Using radial grid of 1876 points,  6 beta functions with: 
                l(1) =   0
                l(2) =   0
                l(3) =   1
                l(4) =   1
                l(5) =   2
                l(6) =   2

     atomic species   valence    mass     pseudopotential
        Al             3.00    29.98200     Al( 1.00)

      2 Sym. Ops. (no inversion) found



   Cartesian axes

     site n.     atom                  positions (alat units)
         1           Al  tau(   1) = (   0.0000000   0.1924524   0.0000000  )
         2           Al  tau(   2) = (   0.1666687   0.0962261   0.0000000  )
         3           Al  tau(   3) = (   0.3333348   0.1924537   0.0000000  )
         4           Al  tau(   4) = (   0.5000036   0.0962275   0.0000000  )
         5           Al  tau(   5) = (  -0.1666663   0.4811295   0.0000000  )
         6           Al  tau(   6) = (   0.0000024   0.3849033   0.0000000  )
         7           Al  tau(   7) = (   0.1666686   0.4811309   0.0000000  )
         8           Al  tau(   8) = (   0.3333373   0.3849047   0.0000000  )
         9           Al  tau(   9) = (  -0.3333326   0.7698067   0.0000000  )
        10           Al  tau(  10) = (  -0.1666639   0.6735805   0.0000000  )
        11           Al  tau(  11) = (   0.0000023   0.7698081   0.0000000  )
        12           Al  tau(  12) = (   0.1666710   0.6735818   0.0000000  )
        13           Al  tau(  13) = (   0.6666697   0.1924551   0.0000000  )
        14           Al  tau(  14) = (   0.8333384   0.0962289   0.0000000  )
        15           Al  tau(  15) = (   0.5000035   0.4811323   0.0000000  )
        16           Al  tau(  16) = (   0.6666722   0.3849060   0.0000000  )
        17           Al  tau(  17) = (   0.3333372   0.7698094   0.0000000  )

     number of k points=     1  Methfessel-Paxton smearing, width (Ry)=  0.0500
                       cart. coord. in units 2pi/alat
        k(    1) = (   0.0000000   0.0000000   0.0000000), wk =   2.0000000

     Dense  grid:  2019149 G-vectors     FFT dimensions: ( 144, 144, 216)

     Estimated max dynamical RAM per process >     437.36 MB

     Estimated total dynamical RAM >       3.42 GB

     Initial potential from superposition of free atoms

     starting charge   50.95840, renormalised to   51.00000

     negative rho (up, down):  5.196E-05 0.000E+00
     Starting wfcs are   68 randomized atomic wfcs

     total cpu time spent up to now is       14.7 secs

     Self-consistent Calculation

     iteration #  1     ecut=    80.00 Ry     beta= 0.40
     Davidson diagonalization with overlap
     ethr =  1.00E-02,  avg # of iterations =  2.0

     total cpu time spent up to now is       22.1 secs

     total energy              =     -77.03484112 Ry
     Harris-Foulkes estimate   =     -77.31744373 Ry
     estimated scf accuracy    <       0.79242572 Ry

     iteration #  2     ecut=    80.00 Ry     beta= 0.40
     Davidson diagonalization with overlap
     ethr =  1.55E-03,  avg # of iterations =  4.0

     total cpu time spent up to now is       29.0 secs

     total energy              =     -77.00215524 Ry
     Harris-Foulkes estimate   =     -77.25526348 Ry
     estimated scf accuracy    <       0.82442979 Ry

     iteration #  3     ecut=    80.00 Ry     beta= 0.40
     Davidson diagonalization with overlap
     ethr =  1.55E-03,  avg # of iterations =  3.0

     total cpu time spent up to now is       36.0 secs

     total energy              =     -77.12776475 Ry
     Harris-Foulkes estimate   =     -77.18852538 Ry
     estimated scf accuracy    <       0.28111307 Ry

     iteration #  4     ecut=    80.00 Ry     beta= 0.40
     Davidson diagonalization with overlap
     ethr =  5.51E-04,  avg # of iterations =  2.0

     total cpu time spent up to now is       43.0 secs

     total energy              =     -77.14936170 Ry
     Harris-Foulkes estimate   =     -77.16591420 Ry
     estimated scf accuracy    <       0.07099883 Ry

     iteration #  5     ecut=    80.00 Ry     beta= 0.40
     Davidson diagonalization with overlap
     ethr =  1.39E-04,  avg # of iterations =  3.0

     total cpu time spent up to now is       50.1 secs

     total energy              =     -77.15928410 Ry
     Harris-Foulkes estimate   =     -77.16198466 Ry
     estimated scf accuracy    <       0.01496213 Ry

     iteration #  6     ecut=    80.00 Ry     beta= 0.40
     Davidson diagonalization with overlap
     ethr =  2.93E-05,  avg # of iterations =  4.0

     total cpu time spent up to now is       57.3 secs

     total energy              =     -77.16168321 Ry
     Harris-Foulkes estimate   =     -77.16200954 Ry
     estimated scf accuracy    <       0.00213422 Ry

     iteration #  7     ecut=    80.00 Ry     beta= 0.40
     Davidson diagonalization with overlap
     ethr =  4.18E-06,  avg # of iterations =  4.0

     total cpu time spent up to now is       64.8 secs

     total energy              =     -77.16190751 Ry
     Harris-Foulkes estimate   =     -77.16228277 Ry
     estimated scf accuracy    <       0.00199234 Ry

     iteration #  8     ecut=    80.00 Ry     beta= 0.40
     Davidson diagonalization with overlap
     ethr =  3.91E-06,  avg # of iterations =  1.0

     total cpu time spent up to now is       71.0 secs

     total energy              =     -77.16202710 Ry
     Harris-Foulkes estimate   =     -77.16218824 Ry
     estimated scf accuracy    <       0.00090590 Ry

     iteration #  9     ecut=    80.00 Ry     beta= 0.40
     Davidson diagonalization with overlap
     ethr =  1.78E-06,  avg # of iterations =  1.0

     total cpu time spent up to now is       77.0 secs

     total energy              =     -77.16208310 Ry
     Harris-Foulkes estimate   =     -77.16210224 Ry
     estimated scf accuracy    <       0.00008795 Ry

     iteration # 10     ecut=    80.00 Ry     beta= 0.40
     Davidson diagonalization with overlap
     ethr =  1.72E-07,  avg # of iterations =  5.0

     total cpu time spent up to now is       85.7 secs

     total energy              =     -77.16211435 Ry
     Harris-Foulkes estimate   =     -77.16212274 Ry
     estimated scf accuracy    <       0.00004508 Ry

     iteration # 11     ecut=    80.00 Ry     beta= 0.40
     Davidson diagonalization with overlap
     ethr =  8.84E-08,  avg # of iterations =  2.0

     total cpu time spent up to now is       91.9 secs

     total energy              =     -77.16211406 Ry
     Harris-Foulkes estimate   =     -77.16212054 Ry
     estimated scf accuracy    <       0.00002741 Ry

     iteration # 12     ecut=    80.00 Ry     beta= 0.40
     Davidson diagonalization with overlap
     ethr =  5.37E-08,  avg # of iterations =  2.0

     total cpu time spent up to now is       98.3 secs

     total energy              =     -77.16211744 Ry
     Harris-Foulkes estimate   =     -77.16211776 Ry
     estimated scf accuracy    <       0.00000190 Ry

     iteration # 13     ecut=    80.00 Ry     beta= 0.40
     Davidson diagonalization with overlap
     ethr =  3.72E-09,  avg # of iterations =  6.0

     total cpu time spent up to now is      107.6 secs

     total energy              =     -77.16211771 Ry
     Harris-Foulkes estimate   =     -77.16211897 Ry
     estimated scf accuracy    <       0.00000974 Ry

     iteration # 14     ecut=    80.00 Ry     beta= 0.40
     Davidson diagonalization with overlap
     ethr =  3.72E-09,  avg # of iterations =  3.0

     total cpu time spent up to now is      114.4 secs

     total energy              =     -77.16211789 Ry
     Harris-Foulkes estimate   =     -77.16211833 Ry
     estimated scf accuracy    <       0.00000273 Ry

     iteration # 15     ecut=    80.00 Ry     beta= 0.40
     Davidson diagonalization with overlap
     ethr =  3.72E-09,  avg # of iterations =  2.0

     total cpu time spent up to now is      120.2 secs

     End of self-consistent calculation

          k = 0.0000 0.0000 0.0000 (252395 PWs)   bands (ev):

    -9.9964  -9.1542  -9.0980  -9.0979  -9.0597  -9.0597  -8.4087  -7.5382
    -7.4672  -7.4672  -6.7263  -5.8849  -5.8791  -5.8791  -5.6092  -5.6091
    -4.7519  -4.7519  -4.0025  -3.5338  -3.3088  -3.2898  -3.2897  -3.2354
    -3.1474  -3.1133  -3.1132  -3.0989  -3.0988  -2.7511  -2.7510

     the Fermi energy is    -3.1135 ev

!    total energy              =     -77.16211780 Ry
     Harris-Foulkes estimate   =     -77.16211805 Ry
     estimated scf accuracy    <       0.00000030 Ry

     The total energy is the sum of the following terms:

     one-electron contribution =    -269.13828056 Ry
     hartree contribution      =     139.26249577 Ry
     xc contribution           =     -33.51698155 Ry
     ewald contribution        =      86.35186857 Ry
     smearing contrib. (-TS)   =      -0.12122003 Ry

     convergence has been achieved in  15 iterations

     Forces acting on atoms (cartesian axes, Ry/au):

     atom    1 type  1   force =     0.00000760    0.00070167    0.00000000
     atom    2 type  1   force =     0.00465159    0.00195224    0.00000000
     atom    3 type  1   force =    -0.00823761    0.00475257    0.00000000
     atom    4 type  1   force =     0.00000623    0.00002141    0.00000000
     atom    5 type  1   force =     0.00061167   -0.00034517    0.00000000
     atom    6 type  1   force =    -0.00000426    0.00000121    0.00000000
     atom    7 type  1   force =    -0.00060455   -0.00035359    0.00000000
     atom    8 type  1   force =     0.00064266   -0.00501277    0.00000000
     atom    9 type  1   force =    -0.01928412   -0.01115866    0.00000000
     atom   10 type  1   force =     0.00399949    0.00306963    0.00000000
     atom   11 type  1   force =    -0.00000769   -0.00953224    0.00000000
     atom   12 type  1   force =    -0.00401210    0.00306925    0.00000000
     atom   13 type  1   force =     0.00825366    0.00476811    0.00000000
     atom   14 type  1   force =    -0.00467344    0.00196093    0.00000000
     atom   15 type  1   force =     0.00001354    0.02226475    0.00000000
     atom   16 type  1   force =    -0.00065348   -0.00502053    0.00000000
     atom   17 type  1   force =     0.01929082   -0.01113881    0.00000000

     Total force =     0.043763     Total SCF correction =     0.000404


     Computing stress (Cartesian axis) and pressure

          total   stress  (Ry/bohr**3)                   (kbar)     P=   -0.80
  -0.00000821   0.00000001   0.00000000         -1.21      0.00      0.00
   0.00000001  -0.00000820   0.00000000          0.00     -1.21      0.00
   0.00000000   0.00000000   0.00000000          0.00      0.00      0.00


     BFGS Geometry Optimization

     number of scf cycles    =   1
     number of bfgs steps    =   0

     enthalpy new            =     -77.1621178039 Ry

     new trust radius        =       0.0222798743 bohr
     new conv_thr            =       0.0000010000 Ry

     new unit-cell volume =  20877.23300 a.u.^3 (  3093.68671 Ang^3 )
     density =      0.27358 g/cm^3

CELL_PARAMETERS (alat= 25.26072511)
   0.999794721   0.000000238   0.000000000
  -0.499897155   0.865847782   0.000000000
   0.000000000   0.000000000   1.496177267

ATOMIC_POSITIONS (angstrom)
Al       0.000005216   2.572431816   0.000000000
Al       2.229930710   1.287063186   0.000000000
Al       4.450547876   2.574594272   0.000000000
Al       6.682379106   1.286060896   0.000000000
Al      -2.227112746   6.429949620   0.000000000
Al       0.000031062   5.144102609   0.000000000
Al       2.227149902   6.429964416   0.000000000
Al       4.455279438   5.141469118   0.000000000
Al      -4.465075366  10.282300192   0.000000000
Al      -2.225287063   9.003797667   0.000000000
Al       0.000029299  10.283179932   0.000000000
Al       2.225380367   9.003816717   0.000000000
Al       8.914179004   2.574621748   0.000000000
Al      11.134809356   1.287106288   0.000000000
Al       6.682383031   6.441950325   0.000000000
Al       8.909499802   5.141484267   0.000000000
Al       4.465145647  10.282349199   0.000000000



     Writing output data file 18al_planar_2x2_vcr.save/
     NEW-OLD atomic charge density approx. for the potential

     negative rho (up, down):  3.813E-07 0.000E+00
     extrapolated charge   50.97909, renormalised to   51.00000

     total cpu time spent up to now is      161.5 secs

     Self-consistent Calculation

     iteration #  1     ecut=    80.00 Ry     beta= 0.40
     Davidson diagonalization with overlap
     ethr =  1.00E-06,  avg # of iterations =  4.0

     negative rho (up, down):  1.937E-07 0.000E+00

     total cpu time spent up to now is      175.5 secs

     total energy              =     -77.16398897 Ry
     Harris-Foulkes estimate   =     -77.26500266 Ry
     estimated scf accuracy    <       0.00015269 Ry

     iteration #  2     ecut=    80.00 Ry     beta= 0.40
     Davidson diagonalization with overlap
     ethr =  2.99E-07,  avg # of iterations =  6.0

     negative rho (up, down):  1.670E-07 0.000E+00

     total cpu time spent up to now is      187.4 secs

     total energy              =     -77.16397482 Ry
     Harris-Foulkes estimate   =     -77.16414495 Ry
     estimated scf accuracy    <       0.00096086 Ry

     iteration #  3     ecut=    80.00 Ry     beta= 0.40
     Davidson diagonalization with overlap
     ethr =  2.99E-07,  avg # of iterations =  4.0

     negative rho (up, down):  1.239E-07 0.000E+00

     total cpu time spent up to now is      194.7 secs

     total energy              =     -77.16405120 Ry
     Harris-Foulkes estimate   =     -77.16406523 Ry
     estimated scf accuracy    <       0.00006056 Ry

     iteration #  4     ecut=    80.00 Ry     beta= 0.40
     Davidson diagonalization with overlap
     ethr =  1.19E-07,  avg # of iterations =  5.0

     negative rho (up, down):  8.301E-08 0.000E+00

     total cpu time spent up to now is      201.3 secs

     total energy              =     -77.16405660 Ry
     Harris-Foulkes estimate   =     -77.16406273 Ry
     estimated scf accuracy    <       0.00002863 Ry

     iteration #  5     ecut=    80.00 Ry     beta= 0.40
     Davidson diagonalization with overlap
     ethr =  5.61E-08,  avg # of iterations =  3.0

     negative rho (up, down):  2.806E-08 0.000E+00

     total cpu time spent up to now is      207.3 secs

     total energy              =     -77.16405961 Ry
     Harris-Foulkes estimate   =     -77.16406024 Ry
     estimated scf accuracy    <       0.00000328 Ry

     iteration #  6     ecut=    80.00 Ry     beta= 0.40
     Davidson diagonalization with overlap
     ethr =  6.43E-09,  avg # of iterations =  7.0

     negative rho (up, down):  1.935E-08 0.000E+00

     total cpu time spent up to now is      215.4 secs

     total energy              =     -77.16405973 Ry
     Harris-Foulkes estimate   =     -77.16406125 Ry
     estimated scf accuracy    <       0.00000817 Ry

     iteration #  7     ecut=    80.00 Ry     beta= 0.40
     Davidson diagonalization with overlap
     ethr =  6.43E-09,  avg # of iterations =  4.0

     negative rho (up, down):  1.168E-08 0.000E+00

     total cpu time spent up to now is      222.2 secs

     total energy              =     -77.16406049 Ry
     Harris-Foulkes estimate   =     -77.16406080 Ry
     estimated scf accuracy    <       0.00000199 Ry

     iteration #  8     ecut=    80.00 Ry     beta= 0.40
     Davidson diagonalization with overlap
     ethr =  3.91E-09,  avg # of iterations =  1.0

     total cpu time spent up to now is      227.6 secs

     End of self-consistent calculation

          k = 0.0000 0.0000 0.0000 (252395 PWs)   bands (ev):

    -9.9962  -9.1514  -9.0993  -9.0993  -9.0555  -9.0555  -8.4039  -7.5358
    -7.4655  -7.4655  -6.7338  -5.8835  -5.8717  -5.8716  -5.6128  -5.6128
    -4.7562  -4.7562  -4.0020  -3.5552  -3.2990  -3.2861  -3.2860  -3.2412
    -3.1448  -3.1120  -3.1120  -3.0975  -3.0974  -2.7446  -2.7445

     the Fermi energy is    -3.1120 ev

!    total energy              =     -77.16406060 Ry
     Harris-Foulkes estimate   =     -77.16406064 Ry
     estimated scf accuracy    <       0.00000016 Ry

     The total energy is the sum of the following terms:

     one-electron contribution =    -269.17398168 Ry
     hartree contribution      =     139.27826037 Ry
     xc contribution           =     -33.51194694 Ry
     ewald contribution        =      86.36380361 Ry
     smearing contrib. (-TS)   =      -0.12019596 Ry

     convergence has been achieved in   8 iterations

     Forces acting on atoms (cartesian axes, Ry/au):

     atom    1 type  1   force =     0.00001460    0.00027674    0.00000000
     atom    2 type  1   force =     0.00399667    0.00061658    0.00000000
     atom    3 type  1   force =    -0.00684068    0.00395158    0.00000000
     atom    4 type  1   force =     0.00000184    0.00001090    0.00000000
     atom    5 type  1   force =     0.00024833   -0.00012731    0.00000000
     atom    6 type  1   force =    -0.00000131   -0.00000032    0.00000000
     atom    7 type  1   force =    -0.00021980   -0.00012656    0.00000000
     atom    8 type  1   force =     0.00149288   -0.00374568    0.00000000
     atom    9 type  1   force =    -0.01912969   -0.01105810    0.00000000
     atom   10 type  1   force =     0.00252075    0.00315951    0.00000000
     atom   11 type  1   force =     0.00000500   -0.00791173    0.00000000
     atom   12 type  1   force =    -0.00250124    0.00316689    0.00000000
     atom   13 type  1   force =     0.00683016    0.00394234    0.00000000
     atom   14 type  1   force =    -0.00401698    0.00058969    0.00000000
     atom   15 type  1   force =    -0.00000796    0.02208309    0.00000000
     atom   16 type  1   force =    -0.00151102   -0.00376518    0.00000000
     atom   17 type  1   force =     0.01911847   -0.01106245    0.00000000

     Total force =     0.041826     Total SCF correction =     0.000159


     Computing stress (Cartesian axis) and pressure

          total   stress  (Ry/bohr**3)                   (kbar)     P=   -0.87
  -0.00000887   0.00000001   0.00000000         -1.31      0.00      0.00
   0.00000001  -0.00000886   0.00000000          0.00     -1.30      0.00
   0.00000000   0.00000000   0.00000004          0.00      0.00      0.01


     number of scf cycles    =   2
     number of bfgs steps    =   1

     enthalpy old            =     -77.1621178039 Ry
     enthalpy new            =     -77.1640606041 Ry

     CASE: enthalpy_new < enthalpy_old


     WARNING: bfgs curvature condition failed, Theta= 0.837
     new trust radius        =       0.0334129607 bohr
     new conv_thr            =       0.0000010000 Ry

     new unit-cell volume =  20863.80021 a.u.^3 (  3091.69617 Ang^3 )
     density =      0.27375 g/cm^3

CELL_PARAMETERS (alat= 25.26072511)
   0.999472822   0.000000521   0.000000000
  -0.499735960   0.865569222   0.000000000
   0.000000000   0.000000000   1.496177267

ATOMIC_POSITIONS (angstrom)
Al       0.000014835   2.571991206   0.000000000
Al       2.232653247   1.287663255   0.000000000
Al       4.443119697   2.577228958   0.000000000
Al       6.680231151   1.285662038   0.000000000
Al      -2.226054010   6.427694820   0.000000000
Al       0.000030311   5.142448837   0.000000000
Al       2.226109153   6.427707884   0.000000000
Al       4.454703493   5.136337656   0.000000000
Al      -4.478935832  10.270143294   0.000000000
Al      -2.221981771   9.003383867   0.000000000
Al       0.000031221  10.272936632   0.000000000
Al       2.222083137   9.003407012   0.000000000
Al       8.917307661   2.577260020   0.000000000
Al      11.127767778   1.287701348   0.000000000
Al       6.680235428   6.457545374   0.000000000
Al       8.905764058   5.136343119   0.000000000
Al       4.479009969  10.270200823   0.000000000



     Writing output data file 18al_planar_2x2_vcr.save/
     NEW-OLD atomic charge density approx. for the potential

     negative rho (up, down):  6.043E-07 0.000E+00
     extrapolated charge   50.96719, renormalised to   51.00000

     total cpu time spent up to now is      265.7 secs

     Self-consistent Calculation

     iteration #  1     ecut=    80.00 Ry     beta= 0.40
     Davidson diagonalization with overlap
     ethr =  1.00E-06,  avg # of iterations =  4.0

     negative rho (up, down):  3.120E-07 0.000E+00

     total cpu time spent up to now is      274.9 secs

     total energy              =     -77.16669176 Ry
     Harris-Foulkes estimate   =     -77.32518879 Ry
     estimated scf accuracy    <       0.00021271 Ry

     iteration #  2     ecut=    80.00 Ry     beta= 0.40
     Davidson diagonalization with overlap
     ethr =  4.17E-07,  avg # of iterations =  4.0

     negative rho (up, down):  2.603E-07 0.000E+00

     total cpu time spent up to now is      282.2 secs

     total energy              =     -77.16671574 Ry
     Harris-Foulkes estimate   =     -77.16686805 Ry
     estimated scf accuracy    <       0.00072721 Ry

     iteration #  3     ecut=    80.00 Ry     beta= 0.40
     Davidson diagonalization with overlap
     ethr =  4.17E-07,  avg # of iterations =  3.0

     negative rho (up, down):  1.858E-07 0.000E+00

     total cpu time spent up to now is      288.6 secs

     total energy              =     -77.16677903 Ry
     Harris-Foulkes estimate   =     -77.16679660 Ry
     estimated scf accuracy    <       0.00007435 Ry

     iteration #  4     ecut=    80.00 Ry     beta= 0.40
     Davidson diagonalization with overlap
     ethr =  1.46E-07,  avg # of iterations =  3.0

     negative rho (up, down):  1.306E-07 0.000E+00

     total cpu time spent up to now is      294.7 secs

     total energy              =     -77.16678248 Ry
     Harris-Foulkes estimate   =     -77.16679237 Ry
     estimated scf accuracy    <       0.00004330 Ry

     iteration #  5     ecut=    80.00 Ry     beta= 0.40
     Davidson diagonalization with overlap
     ethr =  8.49E-08,  avg # of iterations =  3.0

     negative rho (up, down):  3.883E-08 0.000E+00

     total cpu time spent up to now is      300.4 secs

     total energy              =     -77.16678709 Ry
     Harris-Foulkes estimate   =     -77.16678957 Ry
     estimated scf accuracy    <       0.00001344 Ry

     iteration #  6     ecut=    80.00 Ry     beta= 0.40
     Davidson diagonalization with overlap
     ethr =  2.64E-08,  avg # of iterations =  4.0

     negative rho (up, down):  2.499E-08 0.000E+00

     total cpu time spent up to now is      306.5 secs

     total energy              =     -77.16678769 Ry
     Harris-Foulkes estimate   =     -77.16679044 Ry
     estimated scf accuracy    <       0.00001442 Ry

     iteration #  7     ecut=    80.00 Ry     beta= 0.40
     Davidson diagonalization with overlap
     ethr =  2.64E-08,  avg # of iterations =  3.0

     negative rho (up, down):  1.603E-08 0.000E+00

     total cpu time spent up to now is      312.2 secs

     total energy              =     -77.16678914 Ry
     Harris-Foulkes estimate   =     -77.16678938 Ry
     estimated scf accuracy    <       0.00000114 Ry

     iteration #  8     ecut=    80.00 Ry     beta= 0.40
     Davidson diagonalization with overlap
     ethr =  2.23E-09,  avg # of iterations =  5.0

     total cpu time spent up to now is      318.9 secs

     End of self-consistent calculation

          k = 0.0000 0.0000 0.0000 (252395 PWs)   bands (ev):

    -9.9960  -9.1474  -9.1019  -9.1019  -9.0488  -9.0487  -8.3977  -7.5323
    -7.4628  -7.4628  -6.7446  -5.8809  -5.8613  -5.8612  -5.6177  -5.6177
    -4.7625  -4.7624  -4.0013  -3.5881  -3.2845  -3.2803  -3.2802  -3.2487
    -3.1409  -3.1121  -3.1121  -3.0933  -3.0932  -2.7351  -2.7349

     the Fermi energy is    -3.1095 ev

!    total energy              =     -77.16678916 Ry
     Harris-Foulkes estimate   =     -77.16678937 Ry
     estimated scf accuracy    <       0.00000043 Ry

     The total energy is the sum of the following terms:

     one-electron contribution =    -269.23238721 Ry
     hartree contribution      =     139.30350592 Ry
     xc contribution           =     -33.50458407 Ry
     ewald contribution        =      86.38535182 Ry
     smearing contrib. (-TS)   =      -0.11867562 Ry

     convergence has been achieved in   8 iterations

     Forces acting on atoms (cartesian axes, Ry/au):

     atom    1 type  1   force =    -0.00000723   -0.00034095    0.00000000
     atom    2 type  1   force =     0.00303518   -0.00128343    0.00000000
     atom    3 type  1   force =    -0.00494514    0.00285726    0.00000000
     atom    4 type  1   force =     0.00001346    0.00001172    0.00000000
     atom    5 type  1   force =    -0.00030132    0.00017100    0.00000000
     atom    6 type  1   force =     0.00000055    0.00000003    0.00000000
     atom    7 type  1   force =     0.00028886    0.00017183    0.00000000
     atom    8 type  1   force =     0.00264594   -0.00198097    0.00000000
     atom    9 type  1   force =    -0.01889013   -0.01091474    0.00000000
     atom   10 type  1   force =     0.00040296    0.00327200    0.00000000
     atom   11 type  1   force =     0.00000577   -0.00572121    0.00000000
     atom   12 type  1   force =    -0.00039306    0.00328368    0.00000000
     atom   13 type  1   force =     0.00495337    0.00285130    0.00000000
     atom   14 type  1   force =    -0.00304792   -0.00128893    0.00000000
     atom   15 type  1   force =     0.00000557    0.02180348    0.00000000
     atom   16 type  1   force =    -0.00264322   -0.00198862    0.00000000
     atom   17 type  1   force =     0.01887635   -0.01090346    0.00000000

     Total force =     0.039880     Total SCF correction =     0.000395


     Computing stress (Cartesian axis) and pressure

          total   stress  (Ry/bohr**3)                   (kbar)     P=   -0.96
  -0.00000981   0.00000001   0.00000000         -1.44      0.00      0.00
   0.00000001  -0.00000981   0.00000000          0.00     -1.44      0.00
   0.00000000   0.00000000   0.00000005          0.00      0.00      0.01


     number of scf cycles    =   3
     number of bfgs steps    =   2

     enthalpy old            =     -77.1640606041 Ry
     enthalpy new            =     -77.1667891557 Ry

     CASE: enthalpy_new < enthalpy_old

     new trust radius        =       0.0501033217 bohr
     new conv_thr            =       0.0000010000 Ry

     new unit-cell volume =  20842.36643 a.u.^3 (  3088.52002 Ang^3 )
     density =      0.27404 g/cm^3

CELL_PARAMETERS (alat= 25.26072511)
   0.998959087   0.000000958   0.000000000
  -0.499478714   0.865124467   0.000000000
   0.000000000   0.000000000   1.496177267

ATOMIC_POSITIONS (angstrom)
Al       0.000014281   2.570867626   0.000000000
Al       2.236096471   1.287346537   0.000000000
Al       4.432966879   2.580450093   0.000000000
Al       6.676810917   1.285025218   0.000000000
Al      -2.224738597   6.424296755   0.000000000
Al       0.000030285   5.139808643   0.000000000
Al       2.224792108   6.424306694   0.000000000
Al       4.454426275   5.129550166   0.000000000
Al      -4.499569891  10.251601531   0.000000000
Al      -2.218254835   9.002574177   0.000000000
Al       0.000033891  10.258553872   0.000000000
Al       2.218359983   9.002605917   0.000000000
Al       8.920612761   2.580490453   0.000000000
Al      11.117437995   1.287393833   0.000000000
Al       6.676818208   6.480714568   0.000000000
Al       8.899175383   5.129549769   0.000000000
Al       4.499649492  10.251684116   0.000000000



     Writing output data file 18al_planar_2x2_vcr.save/
     NEW-OLD atomic charge density approx. for the potential

     negative rho (up, down):  9.283E-07 0.000E+00
     extrapolated charge   50.94760, renormalised to   51.00000

     total cpu time spent up to now is      358.2 secs

     Self-consistent Calculation

     iteration #  1     ecut=    80.00 Ry     beta= 0.40
     Davidson diagonalization with overlap
     ethr =  1.00E-06,  avg # of iterations =  6.0

     negative rho (up, down):  4.853E-07 0.000E+00

     total cpu time spent up to now is      367.9 secs

     total energy              =     -77.17039134 Ry
     Harris-Foulkes estimate   =     -77.42368391 Ry
     estimated scf accuracy    <       0.00040642 Ry

     iteration #  2     ecut=    80.00 Ry     beta= 0.40
     Davidson diagonalization with overlap
     ethr =  7.97E-07,  avg # of iterations =  5.0

     negative rho (up, down):  4.079E-07 0.000E+00

     total cpu time spent up to now is      375.4 secs

     total energy              =     -77.17045448 Ry
     Harris-Foulkes estimate   =     -77.17076901 Ry
     estimated scf accuracy    <       0.00155972 Ry

     iteration #  3     ecut=    80.00 Ry     beta= 0.40
     Davidson diagonalization with overlap
     ethr =  7.97E-07,  avg # of iterations =  3.0

     negative rho (up, down):  3.014E-07 0.000E+00

     total cpu time spent up to now is      381.9 secs

     total energy              =     -77.17058217 Ry
     Harris-Foulkes estimate   =     -77.17061109 Ry
     estimated scf accuracy    <       0.00012923 Ry

     iteration #  4     ecut=    80.00 Ry     beta= 0.40
     Davidson diagonalization with overlap
     ethr =  2.53E-07,  avg # of iterations =  5.0

     negative rho (up, down):  2.160E-07 0.000E+00

     total cpu time spent up to now is      387.9 secs

     total energy              =     -77.17058450 Ry
     Harris-Foulkes estimate   =     -77.17060216 Ry
     estimated scf accuracy    <       0.00008123 Ry

     iteration #  5     ecut=    80.00 Ry     beta= 0.40
     Davidson diagonalization with overlap
     ethr =  1.59E-07,  avg # of iterations =  4.0

     negative rho (up, down):  4.976E-08 0.000E+00

     total cpu time spent up to now is      393.6 secs

     total energy              =     -77.17059094 Ry
     Harris-Foulkes estimate   =     -77.17059736 Ry
     estimated scf accuracy    <       0.00003470 Ry

     iteration #  6     ecut=    80.00 Ry     beta= 0.40
     Davidson diagonalization with overlap
     ethr =  6.80E-08,  avg # of iterations =  3.0

     negative rho (up, down):  3.146E-08 0.000E+00

     total cpu time spent up to now is      399.4 secs

     total energy              =     -77.17059435 Ry
     Harris-Foulkes estimate   =     -77.17059658 Ry
     estimated scf accuracy    <       0.00000942 Ry

     iteration #  7     ecut=    80.00 Ry     beta= 0.40
     Davidson diagonalization with overlap
     ethr =  1.85E-08,  avg # of iterations =  4.0

     negative rho (up, down):  2.380E-08 0.000E+00

     total cpu time spent up to now is      406.1 secs

     total energy              =     -77.17059585 Ry
     Harris-Foulkes estimate   =     -77.17059681 Ry
     estimated scf accuracy    <       0.00000516 Ry

     iteration #  8     ecut=    80.00 Ry     beta= 0.40
     Davidson diagonalization with overlap
     ethr =  1.01E-08,  avg # of iterations =  2.0

     negative rho (up, down):  1.076E-08 0.000E+00

     total cpu time spent up to now is      411.7 secs

     total energy              =     -77.17059597 Ry
     Harris-Foulkes estimate   =     -77.17059628 Ry
     estimated scf accuracy    <       0.00000120 Ry

     iteration #  9     ecut=    80.00 Ry     beta= 0.40
     Davidson diagonalization with overlap
     ethr =  2.35E-09,  avg # of iterations =  4.0

     total cpu time spent up to now is      419.1 secs

     total energy              =     -77.17059612 Ry
     Harris-Foulkes estimate   =     -77.17059647 Ry
     estimated scf accuracy    <       0.00000287 Ry

     iteration # 10     ecut=    80.00 Ry     beta= 0.40
     Davidson diagonalization with overlap
     ethr =  2.35E-09,  avg # of iterations =  3.0

     total cpu time spent up to now is      424.8 secs

     End of self-consistent calculation

          k = 0.0000 0.0000 0.0000 (252395 PWs)   bands (ev):

    -9.9947  -9.1412  -9.1048  -9.1047  -9.0377  -9.0376  -8.3902  -7.5257
    -7.4580  -7.4579  -6.7595  -5.8754  -5.8463  -5.8462  -5.6232  -5.6231
    -4.7708  -4.7707  -3.9996  -3.6398  -3.2704  -3.2703  -3.2655  -3.2539
    -3.1349  -3.1129  -3.1128  -3.0850  -3.0849  -2.7207  -2.7207

     the Fermi energy is    -3.1046 ev

!    total energy              =     -77.17059599 Ry
     Harris-Foulkes estimate   =     -77.17059636 Ry
     estimated scf accuracy    <       0.00000046 Ry

     The total energy is the sum of the following terms:

     one-electron contribution =    -269.32934250 Ry
     hartree contribution      =     139.34336304 Ry
     xc contribution           =     -33.49351237 Ry
     ewald contribution        =      86.42539441 Ry
     smearing contrib. (-TS)   =      -0.11649856 Ry

     convergence has been achieved in  10 iterations

     Forces acting on atoms (cartesian axes, Ry/au):

     atom    1 type  1   force =     0.00000990   -0.00111016    0.00000000
     atom    2 type  1   force =     0.00169393   -0.00381626    0.00000000
     atom    3 type  1   force =    -0.00252507    0.00145329    0.00000000
     atom    4 type  1   force =    -0.00001134    0.00000091    0.00000000
     atom    5 type  1   force =    -0.00095024    0.00056539    0.00000000
     atom    6 type  1   force =     0.00000195   -0.00000741    0.00000000
     atom    7 type  1   force =     0.00096551    0.00056125    0.00000000
     atom    8 type  1   force =     0.00414869    0.00043619    0.00000000
     atom    9 type  1   force =    -0.01847635   -0.01065714    0.00000000
     atom   10 type  1   force =    -0.00246302    0.00337217    0.00000000
     atom   11 type  1   force =     0.00000393   -0.00290939    0.00000000
     atom   12 type  1   force =     0.00244603    0.00335891    0.00000000
     atom   13 type  1   force =     0.00251188    0.00144192    0.00000000
     atom   14 type  1   force =    -0.00167680   -0.00380881    0.00000000
     atom   15 type  1   force =    -0.00000824    0.02134125    0.00000000
     atom   16 type  1   force =    -0.00415177    0.00044963    0.00000000
     atom   17 type  1   force =     0.01848100   -0.01067174    0.00000000

     Total force =     0.038719     Total SCF correction =     0.000531


     Computing stress (Cartesian axis) and pressure

          total   stress  (Ry/bohr**3)                   (kbar)     P=   -1.10
  -0.00001117   0.00000000   0.00000000         -1.64      0.00      0.00
   0.00000000  -0.00001117   0.00000000          0.00     -1.64      0.00
   0.00000000   0.00000000  -0.00000004          0.00      0.00     -0.01


     number of scf cycles    =   4
     number of bfgs steps    =   3

     enthalpy old            =     -77.1667891557 Ry
     enthalpy new            =     -77.1705959897 Ry

     CASE: enthalpy_new < enthalpy_old

     new trust radius        =       0.0751163891 bohr
     new conv_thr            =       0.0000010000 Ry

     new unit-cell volume =  20808.52612 a.u.^3 (  3083.50540 Ang^3 )
     density =      0.27448 g/cm^3

CELL_PARAMETERS (alat= 25.26072511)
   0.998147532   0.000001508   0.000000000
  -0.499072460   0.864421805   0.000000000
   0.000000000   0.000000000   1.496177267

ATOMIC_POSITIONS (angstrom)
Al       0.000027638   2.568669312   0.000000000
Al       2.240472699   1.285450530   0.000000000
Al       4.418776996   2.584464970   0.000000000
Al       6.671388344   1.284009821   0.000000000
Al      -2.223013937   6.419147183   0.000000000
Al       0.000030154   5.135631900   0.000000000
Al       2.223087101   6.419147810   0.000000000
Al       4.454649758   5.120437550   0.000000000
Al      -4.530295801  10.223402956   0.000000000
Al      -2.214110348   9.001068421   0.000000000
Al       0.000034470  10.237979090   0.000000000
Al       2.214199714   9.001094230   0.000000000
Al       8.923967719   2.584516528   0.000000000
Al      11.102203433   1.285519211   0.000000000
Al       6.671408238   6.515164238   0.000000000
Al       8.888098014   5.120441519   0.000000000
Al       4.530395796  10.223504111   0.000000000



     Writing output data file 18al_planar_2x2_vcr.save/
     NEW-OLD atomic charge density approx. for the potential

     negative rho (up, down):  1.409E-06 0.000E+00
     extrapolated charge   50.91713, renormalised to   51.00000

     total cpu time spent up to now is      463.0 secs

     Self-consistent Calculation

     iteration #  1     ecut=    80.00 Ry     beta= 0.40
     Davidson diagonalization with overlap
     ethr =  1.00E-06,  avg # of iterations =  7.0

     negative rho (up, down):  7.492E-07 0.000E+00

     total cpu time spent up to now is      473.5 secs

     total energy              =     -77.17524329 Ry
     Harris-Foulkes estimate   =     -77.57635898 Ry
     estimated scf accuracy    <       0.00116859 Ry

     iteration #  2     ecut=    80.00 Ry     beta= 0.40
     Davidson diagonalization with overlap
     ethr =  2.29E-06,  avg # of iterations =  5.0

     negative rho (up, down):  6.402E-07 0.000E+00

     total cpu time spent up to now is      481.2 secs

     total energy              =     -77.17534581 Ry
     Harris-Foulkes estimate   =     -77.17654521 Ry
     estimated scf accuracy    <       0.00640523 Ry

     iteration #  3     ecut=    80.00 Ry     beta= 0.40
     Davidson diagonalization with overlap
     ethr =  2.29E-06,  avg # of iterations =  4.0

     negative rho (up, down):  5.146E-07 0.000E+00

     total cpu time spent up to now is      487.9 secs

     total energy              =     -77.17583705 Ry
     Harris-Foulkes estimate   =     -77.17592646 Ry
     estimated scf accuracy    <       0.00043455 Ry

     iteration #  4     ecut=    80.00 Ry     beta= 0.40
     Davidson diagonalization with overlap
     ethr =  8.52E-07,  avg # of iterations =  5.0

     negative rho (up, down):  3.895E-07 0.000E+00

     total cpu time spent up to now is      494.1 secs

     total energy              =     -77.17585975 Ry
     Harris-Foulkes estimate   =     -77.17589826 Ry
     estimated scf accuracy    <       0.00021476 Ry

     iteration #  5     ecut=    80.00 Ry     beta= 0.40
     Davidson diagonalization with overlap
     ethr =  4.21E-07,  avg # of iterations =  4.0

     negative rho (up, down):  6.764E-08 0.000E+00

     total cpu time spent up to now is      499.9 secs

     total energy              =     -77.17586472 Ry
     Harris-Foulkes estimate   =     -77.17588091 Ry
     estimated scf accuracy    <       0.00006811 Ry

     iteration #  6     ecut=    80.00 Ry     beta= 0.40
     Davidson diagonalization with overlap
     ethr =  1.34E-07,  avg # of iterations =  4.0

     negative rho (up, down):  4.354E-08 0.000E+00

     total cpu time spent up to now is      506.6 secs

     total energy              =     -77.17587549 Ry
     Harris-Foulkes estimate   =     -77.17588144 Ry
     estimated scf accuracy    <       0.00002726 Ry

     iteration #  7     ecut=    80.00 Ry     beta= 0.40
     Davidson diagonalization with overlap
     ethr =  5.35E-08,  avg # of iterations =  3.0

     negative rho (up, down):  3.368E-08 0.000E+00

     total cpu time spent up to now is      512.4 secs

     total energy              =     -77.17587723 Ry
     Harris-Foulkes estimate   =     -77.17588056 Ry
     estimated scf accuracy    <       0.00001844 Ry

     iteration #  8     ecut=    80.00 Ry     beta= 0.40
     Davidson diagonalization with overlap
     ethr =  3.62E-08,  avg # of iterations =  1.0

     negative rho (up, down):  1.831E-08 0.000E+00

     total cpu time spent up to now is      517.7 secs

     total energy              =     -77.17587786 Ry
     Harris-Foulkes estimate   =     -77.17587882 Ry
     estimated scf accuracy    <       0.00000402 Ry

     iteration #  9     ecut=    80.00 Ry     beta= 0.40
     Davidson diagonalization with overlap
     ethr =  7.89E-09,  avg # of iterations =  4.0

     total cpu time spent up to now is      523.9 secs

     total energy              =     -77.17587807 Ry
     Harris-Foulkes estimate   =     -77.17587877 Ry
     estimated scf accuracy    <       0.00000394 Ry

     iteration # 10     ecut=    80.00 Ry     beta= 0.40
     Davidson diagonalization with overlap
     ethr =  7.72E-09,  avg # of iterations =  2.0

     total cpu time spent up to now is      529.0 secs

     End of self-consistent calculation

          k = 0.0000 0.0000 0.0000 (252395 PWs)   bands (ev):

    -9.9943  -9.1335  -9.1100  -9.1099  -9.0238  -9.0237  -8.3842  -7.5175
    -7.4522  -7.4521  -6.7838  -5.8674  -5.8275  -5.8274  -5.6320  -5.6318
    -4.7846  -4.7845  -3.9979  -3.7242  -3.2732  -3.2566  -3.2565  -3.2269
    -3.1266  -3.1148  -3.1147  -3.0739  -3.0737  -2.7020  -2.7019

     the Fermi energy is    -3.0976 ev

!    total energy              =     -77.17587809 Ry
     Harris-Foulkes estimate   =     -77.17587853 Ry
     estimated scf accuracy    <       0.00000056 Ry

     The total energy is the sum of the following terms:

     one-electron contribution =    -269.50065244 Ry
     hartree contribution      =     139.41968245 Ry
     xc contribution           =     -33.47912834 Ry
     ewald contribution        =      86.49785584 Ry
     smearing contrib. (-TS)   =      -0.11363559 Ry

     convergence has been achieved in  10 iterations

     Forces acting on atoms (cartesian axes, Ry/au):

     atom    1 type  1   force =     0.00000621   -0.00218661    0.00000000
     atom    2 type  1   force =    -0.00032605   -0.00723276    0.00000000
     atom    3 type  1   force =     0.00072504   -0.00042635    0.00000000
     atom    4 type  1   force =     0.00001868   -0.00000098    0.00000000
     atom    5 type  1   force =    -0.00189490    0.00110241    0.00000000
     atom    6 type  1   force =    -0.00001290   -0.00000757    0.00000000
     atom    7 type  1   force =     0.00190134    0.00109945    0.00000000
     atom    8 type  1   force =     0.00612697    0.00389815    0.00000000
     atom    9 type  1   force =    -0.01750126   -0.01009815    0.00000000
     atom   10 type  1   force =    -0.00641616    0.00332718    0.00000000
     atom   11 type  1   force =    -0.00000556    0.00084255    0.00000000
     atom   12 type  1   force =     0.00644327    0.00335334    0.00000000
     atom   13 type  1   force =    -0.00073036   -0.00042123    0.00000000
     atom   14 type  1   force =     0.00031039   -0.00723648    0.00000000
     atom   15 type  1   force =    -0.00000250    0.02017391    0.00000000
     atom   16 type  1   force =    -0.00611383    0.00389461    0.00000000
     atom   17 type  1   force =     0.01747162   -0.01008147    0.00000000

     Total force =     0.039419     Total SCF correction =     0.000626


     Computing stress (Cartesian axis) and pressure

          total   stress  (Ry/bohr**3)                   (kbar)     P=   -1.28
  -0.00001310  -0.00000000   0.00000000         -1.93     -0.00      0.00
  -0.00000000  -0.00001310   0.00000000         -0.00     -1.93      0.00
   0.00000000   0.00000000   0.00000002          0.00      0.00      0.00


     number of scf cycles    =   5
     number of bfgs steps    =   4

     enthalpy old            =     -77.1705959897 Ry
     enthalpy new            =     -77.1758780861 Ry

     CASE: enthalpy_new < enthalpy_old

     new trust radius        =       0.1125830073 bohr
     new conv_thr            =       0.0000010000 Ry

     new unit-cell volume =  20755.18837 a.u.^3 (  3075.60156 Ang^3 )
     density =      0.27519 g/cm^3

CELL_PARAMETERS (alat= 25.26072511)
   0.996866988   0.000002206   0.000000000
  -0.498431583   0.863313277   0.000000000
   0.000000000   0.000000000   1.496177267

ATOMIC_POSITIONS (angstrom)
Al       0.000045878   2.564658212   0.000000000
Al       2.245892803   1.280767604   0.000000000
Al       4.398689458   2.589468391   0.000000000
Al       6.662855546   1.282405890   0.000000000
Al      -2.220773531   6.411292785   0.000000000
Al       0.000017504   5.129043262   0.000000000
Al       2.220870090   6.411279413   0.000000000
Al       4.455747874   5.108196123   0.000000000
Al      -4.575989102  10.180515799   0.000000000
Al      -2.209768076   8.998252123   0.000000000
Al       0.000025917  10.208172091   0.000000000
Al       2.209866146   8.998299298   0.000000000
Al       8.926964907   2.589550774   0.000000000
Al      11.079620723   1.280856765   0.000000000
Al       6.662875660   6.566267641   0.000000000
Al       8.869882249   5.108189688   0.000000000
Al       4.576091390  10.180669760   0.000000000



     Writing output data file 18al_planar_2x2_vcr.save/
     NEW-OLD atomic charge density approx. for the potential

     negative rho (up, down):  2.104E-06 0.000E+00
     extrapolated charge   50.86904, renormalised to   51.00000

     total cpu time spent up to now is      567.8 secs

     Self-consistent Calculation

     iteration #  1     ecut=    80.00 Ry     beta= 0.40
     Davidson diagonalization with overlap
     ethr =  1.00E-06,  avg # of iterations =  8.0

     negative rho (up, down):  1.140E-06 0.000E+00

     total cpu time spent up to now is      579.5 secs

     total energy              =     -77.18115730 Ry
     Harris-Foulkes estimate   =     -77.81638568 Ry
     estimated scf accuracy    <       0.00302559 Ry

     iteration #  2     ecut=    80.00 Ry     beta= 0.40
     Davidson diagonalization with overlap
     ethr =  5.93E-06,  avg # of iterations =  5.0

     negative rho (up, down):  9.692E-07 0.000E+00

     total cpu time spent up to now is      586.7 secs

     total energy              =     -77.18154265 Ry
     Harris-Foulkes estimate   =     -77.18464828 Ry
     estimated scf accuracy    <       0.01628814 Ry

     iteration #  3     ecut=    80.00 Ry     beta= 0.40
     Davidson diagonalization with overlap
     ethr =  5.93E-06,  avg # of iterations =  3.0

     negative rho (up, down):  7.937E-07 0.000E+00

     total cpu time spent up to now is      593.4 secs

     total energy              =     -77.18279150 Ry
     Harris-Foulkes estimate   =     -77.18297639 Ry
     estimated scf accuracy    <       0.00096478 Ry

     iteration #  4     ecut=    80.00 Ry     beta= 0.40
     Davidson diagonalization with overlap
     ethr =  1.89E-06,  avg # of iterations =  4.0

     negative rho (up, down):  6.179E-07 0.000E+00

     total cpu time spent up to now is      599.2 secs

     total energy              =     -77.18283376 Ry
     Harris-Foulkes estimate   =     -77.18291635 Ry
     estimated scf accuracy    <       0.00050479 Ry

     iteration #  5     ecut=    80.00 Ry     beta= 0.40
     Davidson diagonalization with overlap
     ethr =  9.90E-07,  avg # of iterations =  3.0

     negative rho (up, down):  7.496E-08 0.000E+00

     total cpu time spent up to now is      604.3 secs

     total energy              =     -77.18282188 Ry
     Harris-Foulkes estimate   =     -77.18287490 Ry
     estimated scf accuracy    <       0.00018930 Ry

     iteration #  6     ecut=    80.00 Ry     beta= 0.40
     Davidson diagonalization with overlap
     ethr =  3.71E-07,  avg # of iterations =  4.0

     negative rho (up, down):  4.920E-08 0.000E+00

     total cpu time spent up to now is      611.2 secs

     total energy              =     -77.18285922 Ry
     Harris-Foulkes estimate   =     -77.18287882 Ry
     estimated scf accuracy    <       0.00011411 Ry

     iteration #  7     ecut=    80.00 Ry     beta= 0.40
     Davidson diagonalization with overlap
     ethr =  2.24E-07,  avg # of iterations =  3.0

     negative rho (up, down):  4.050E-08 0.000E+00

     total cpu time spent up to now is      616.7 secs

     total energy              =     -77.18286271 Ry
     Harris-Foulkes estimate   =     -77.18287233 Ry
     estimated scf accuracy    <       0.00005749 Ry

     iteration #  8     ecut=    80.00 Ry     beta= 0.40
     Davidson diagonalization with overlap
     ethr =  1.13E-07,  avg # of iterations =  1.0

     negative rho (up, down):  1.954E-08 0.000E+00

     total cpu time spent up to now is      622.1 secs

     total energy              =     -77.18286137 Ry
     Harris-Foulkes estimate   =     -77.18286608 Ry
     estimated scf accuracy    <       0.00001756 Ry

     iteration #  9     ecut=    80.00 Ry     beta= 0.40
     Davidson diagonalization with overlap
     ethr =  3.44E-08,  avg # of iterations =  3.0

     total cpu time spent up to now is      628.4 secs

     total energy              =     -77.18286327 Ry
     Harris-Foulkes estimate   =     -77.18286461 Ry
     estimated scf accuracy    <       0.00000719 Ry

     iteration # 10     ecut=    80.00 Ry     beta= 0.40
     Davidson diagonalization with overlap
     ethr =  1.41E-08,  avg # of iterations =  2.0

     total cpu time spent up to now is      634.1 secs

     total energy              =     -77.18286388 Ry
     Harris-Foulkes estimate   =     -77.18286418 Ry
     estimated scf accuracy    <       0.00000154 Ry

     iteration # 11     ecut=    80.00 Ry     beta= 0.40
     Davidson diagonalization with overlap
     ethr =  3.01E-09,  avg # of iterations =  4.0

     total cpu time spent up to now is      640.4 secs

     End of self-consistent calculation

          k = 0.0000 0.0000 0.0000 (252395 PWs)   bands (ev):

    -9.9934  -9.1205  -9.1163  -9.1162  -9.0057  -9.0056  -8.3835  -7.5054
    -7.4437  -7.4436  -6.8236  -5.8529  -5.8028  -5.8027  -5.6442  -5.6442
    -4.8052  -4.8051  -3.9953  -3.8672  -3.2901  -3.2346  -3.2345  -3.1778
    -3.1159  -3.1159  -3.1127  -3.0593  -3.0593  -2.6760  -2.6760

     the Fermi energy is    -3.0847 ev

!    total energy              =     -77.18286390 Ry
     Harris-Foulkes estimate   =     -77.18286409 Ry
     estimated scf accuracy    <       0.00000036 Ry

     The total energy is the sum of the following terms:

     one-electron contribution =    -269.78945335 Ry
     hartree contribution      =     139.54618933 Ry
     xc contribution           =     -33.45863002 Ry
     ewald contribution        =      86.62996072 Ry
     smearing contrib. (-TS)   =      -0.11093058 Ry

     convergence has been achieved in  11 iterations

     Forces acting on atoms (cartesian axes, Ry/au):

     atom    1 type  1   force =    -0.00000213   -0.00364462    0.00000000
     atom    2 type  1   force =    -0.00353730   -0.01188708    0.00000000
     atom    3 type  1   force =     0.00515405   -0.00297886    0.00000000
     atom    4 type  1   force =    -0.00000551   -0.00001497    0.00000000
     atom    5 type  1   force =    -0.00316919    0.00181945    0.00000000
     atom    6 type  1   force =     0.00001064    0.00000900    0.00000000
     atom    7 type  1   force =     0.00316225    0.00182123    0.00000000
     atom    8 type  1   force =     0.00850036    0.00900729    0.00000000
     atom    9 type  1   force =    -0.01490713   -0.00858699    0.00000000
     atom   10 type  1   force =    -0.01204634    0.00285612    0.00000000
     atom   11 type  1   force =    -0.00000500    0.00598009    0.00000000
     atom   12 type  1   force =     0.01204814    0.00285130    0.00000000
     atom   13 type  1   force =    -0.00519106   -0.00298119    0.00000000
     atom   14 type  1   force =     0.00356851   -0.01187530    0.00000000
     atom   15 type  1   force =    -0.00001031    0.01720428    0.00000000
     atom   16 type  1   force =    -0.00848058    0.00901689    0.00000000
     atom   17 type  1   force =     0.01491061   -0.00859664    0.00000000

     Total force =     0.044226     Total SCF correction =     0.000490


     Computing stress (Cartesian axis) and pressure

          total   stress  (Ry/bohr**3)                   (kbar)     P=   -1.55
  -0.00001582  -0.00000000   0.00000000         -2.33     -0.00      0.00
  -0.00000000  -0.00001583   0.00000000         -0.00     -2.33      0.00
   0.00000000   0.00000000  -0.00000001          0.00      0.00     -0.00


     number of scf cycles    =   6
     number of bfgs steps    =   5

     enthalpy old            =     -77.1758780861 Ry
     enthalpy new            =     -77.1828638985 Ry

     CASE: enthalpy_new < enthalpy_old

     new trust radius        =       0.1686580003 bohr
     new conv_thr            =       0.0000010000 Ry

     new unit-cell volume =  20669.97024 a.u.^3 (  3062.97354 Ang^3 )
     density =      0.27632 g/cm^3

CELL_PARAMETERS (alat= 25.26072511)
   0.994817768   0.000003478   0.000000000
  -0.497405872   0.861539018   0.000000000
   0.000000000   0.000000000   1.496177267

ATOMIC_POSITIONS (angstrom)
Al       0.000069346   2.557444799   0.000000000
Al       2.251949941   1.270780882   0.000000000
Al       4.370034123   2.595465791   0.000000000
Al       6.649178746   1.279828334   0.000000000
Al      -2.217883985   6.399107644   0.000000000
Al       0.000018946   5.118513959   0.000000000
Al       2.218011528   6.399077532   0.000000000
Al       4.458312773   5.092122935   0.000000000
Al      -4.643681313  10.115023277   0.000000000
Al      -2.206281553   8.992709970   0.000000000
Al       0.000014665  10.164517355   0.000000000
Al       2.206376210   8.992764607   0.000000000
Al       8.928244683   2.595591800   0.000000000
Al      11.046136735   1.270913157   0.000000000
Al       6.649215199   6.641803514   0.000000000
Al       8.839927707   5.092108198   0.000000000
Al       4.643820512  10.115239196   0.000000000



     Writing output data file 18al_planar_2x2_vcr.save/
     NEW-OLD atomic charge density approx. for the potential

     negative rho (up, down):  3.532E-06 0.000E+00
     extrapolated charge   50.78991, renormalised to   51.00000

     total cpu time spent up to now is      679.3 secs

     Self-consistent Calculation

     iteration #  1     ecut=    80.00 Ry     beta= 0.40
     Davidson diagonalization with overlap
     ethr =  1.00E-06,  avg # of iterations =  9.0

     negative rho (up, down):  1.953E-06 0.000E+00

     total cpu time spent up to now is      692.1 secs

     total energy              =     -77.18560142 Ry
     Harris-Foulkes estimate   =     -78.20928013 Ry
     estimated scf accuracy    <       0.00923857 Ry

     iteration #  2     ecut=    80.00 Ry     beta= 0.40
     Davidson diagonalization with overlap
     ethr =  1.81E-05,  avg # of iterations = 11.0

     negative rho (up, down):  1.675E-06 0.000E+00

     total cpu time spent up to now is      700.2 secs

     total energy              =     -77.18598067 Ry
     Harris-Foulkes estimate   =     -77.19699621 Ry
     estimated scf accuracy    <       0.06173616 Ry

     iteration #  3     ecut=    80.00 Ry     beta= 0.40
     Davidson diagonalization with overlap
     ethr =  1.81E-05,  avg # of iterations =  4.0

     negative rho (up, down):  1.388E-06 0.000E+00

     total cpu time spent up to now is      707.0 secs

     total energy              =     -77.19035956 Ry
     Harris-Foulkes estimate   =     -77.19070276 Ry
     estimated scf accuracy    <       0.00271106 Ry

     iteration #  4     ecut=    80.00 Ry     beta= 0.40
     Davidson diagonalization with overlap
     ethr =  5.32E-06,  avg # of iterations =  3.0

     negative rho (up, down):  1.060E-06 0.000E+00

     total cpu time spent up to now is      712.4 secs

     total energy              =     -77.19031400 Ry
     Harris-Foulkes estimate   =     -77.19051841 Ry
     estimated scf accuracy    <       0.00156070 Ry

     iteration #  5     ecut=    80.00 Ry     beta= 0.40
     Davidson diagonalization with overlap
     ethr =  3.06E-06,  avg # of iterations =  1.0

     negative rho (up, down):  1.412E-07 0.000E+00

     total cpu time spent up to now is      717.5 secs

     total energy              =     -77.19008161 Ry
     Harris-Foulkes estimate   =     -77.19041073 Ry
     estimated scf accuracy    <       0.00112256 Ry

     iteration #  6     ecut=    80.00 Ry     beta= 0.40
     Davidson diagonalization with overlap
     ethr =  2.20E-06,  avg # of iterations =  3.0

     negative rho (up, down):  5.452E-08 0.000E+00

     total cpu time spent up to now is      723.7 secs

     total energy              =     -77.19025921 Ry
     Harris-Foulkes estimate   =     -77.19034694 Ry
     estimated scf accuracy    <       0.00053487 Ry

     iteration #  7     ecut=    80.00 Ry     beta= 0.40
     Davidson diagonalization with overlap
     ethr =  1.05E-06,  avg # of iterations =  3.0

     negative rho (up, down):  4.560E-08 0.000E+00

     total cpu time spent up to now is      729.0 secs

     total energy              =     -77.19029640 Ry
     Harris-Foulkes estimate   =     -77.19032157 Ry
     estimated scf accuracy    <       0.00014021 Ry

     iteration #  8     ecut=    80.00 Ry     beta= 0.40
     Davidson diagonalization with overlap
     ethr =  2.75E-07,  avg # of iterations =  4.0

     negative rho (up, down):  3.758E-08 0.000E+00

     total cpu time spent up to now is      735.1 secs

     total energy              =     -77.19029831 Ry
     Harris-Foulkes estimate   =     -77.19030983 Ry
     estimated scf accuracy    <       0.00009130 Ry

     iteration #  9     ecut=    80.00 Ry     beta= 0.40
     Davidson diagonalization with overlap
     ethr =  1.79E-07,  avg # of iterations =  1.0

     negative rho (up, down):  1.473E-08 0.000E+00

     total cpu time spent up to now is      740.1 secs

     total energy              =     -77.19028730 Ry
     Harris-Foulkes estimate   =     -77.19030247 Ry
     estimated scf accuracy    <       0.00005309 Ry

     iteration # 10     ecut=    80.00 Ry     beta= 0.40
     Davidson diagonalization with overlap
     ethr =  1.04E-07,  avg # of iterations =  3.0

     negative rho (up, down):  1.301E-08 0.000E+00

     total cpu time spent up to now is      746.2 secs

     total energy              =     -77.19029395 Ry
     Harris-Foulkes estimate   =     -77.19029526 Ry
     estimated scf accuracy    <       0.00000535 Ry

     iteration # 11     ecut=    80.00 Ry     beta= 0.40
     Davidson diagonalization with overlap
     c_bands:  1 eigenvalues not converged
     ethr =  1.05E-08,  avg # of iterations = 20.0

     negative rho (up, down):  1.554E-08 0.000E+00

     total cpu time spent up to now is      755.6 secs

     total energy              =     -77.19089629 Ry
     Harris-Foulkes estimate   =     -77.19089206 Ry
     estimated scf accuracy    <       0.00038327 Ry

     iteration # 12     ecut=    80.00 Ry     beta= 0.40
     Davidson diagonalization with overlap
     ethr =  1.05E-08,  avg # of iterations =  1.0

     total cpu time spent up to now is      761.3 secs

     total energy              =     -77.19090152 Ry
     Harris-Foulkes estimate   =     -77.19089645 Ry
     estimated scf accuracy    <       0.00039703 Ry

     iteration # 13     ecut=    80.00 Ry     beta= 0.40
     Davidson diagonalization with overlap
     ethr =  1.05E-08,  avg # of iterations =  1.0

     total cpu time spent up to now is      766.8 secs

     total energy              =     -77.19092335 Ry
     Harris-Foulkes estimate   =     -77.19090169 Ry
     estimated scf accuracy    <       0.00042305 Ry

     iteration # 14     ecut=    80.00 Ry     beta= 0.40
     Davidson diagonalization with overlap
     ethr =  1.05E-08,  avg # of iterations =  3.0

     total cpu time spent up to now is      773.1 secs

     total energy              =     -77.19093139 Ry
     Harris-Foulkes estimate   =     -77.19092449 Ry
     estimated scf accuracy    <       0.00054621 Ry

     iteration # 15     ecut=    80.00 Ry     beta= 0.40
     Davidson diagonalization with overlap
     ethr =  1.05E-08,  avg # of iterations =  1.0

     total cpu time spent up to now is      778.5 secs

     total energy              =     -77.19092518 Ry
     Harris-Foulkes estimate   =     -77.19093150 Ry
     estimated scf accuracy    <       0.00057411 Ry

     iteration # 16     ecut=    80.00 Ry     beta= 0.40
     Davidson diagonalization with overlap
     ethr =  1.05E-08,  avg # of iterations =  1.0

     negative rho (up, down):  1.219E-08 0.000E+00

     total cpu time spent up to now is      783.7 secs

     total energy              =     -77.19087989 Ry
     Harris-Foulkes estimate   =     -77.19092530 Ry
     estimated scf accuracy    <       0.00054521 Ry

     iteration # 17     ecut=    80.00 Ry     beta= 0.40
     Davidson diagonalization with overlap
     ethr =  1.05E-08,  avg # of iterations =  4.0

     total cpu time spent up to now is      791.3 secs

     total energy              =     -77.19086576 Ry
     Harris-Foulkes estimate   =     -77.19088304 Ry
     estimated scf accuracy    <       0.00034249 Ry

     iteration # 18     ecut=    80.00 Ry     beta= 0.40
     Davidson diagonalization with overlap
     ethr =  1.05E-08,  avg # of iterations =  4.0

     total cpu time spent up to now is      798.7 secs

     total energy              =     -77.19087537 Ry
     Harris-Foulkes estimate   =     -77.19086708 Ry
     estimated scf accuracy    <       0.00026391 Ry

     iteration # 19     ecut=    80.00 Ry     beta= 0.40
     Davidson diagonalization with overlap
     ethr =  1.05E-08,  avg # of iterations =  2.0

     negative rho (up, down):  1.759E-08 0.000E+00

     total cpu time spent up to now is      804.9 secs

     total energy              =     -77.19077938 Ry
     Harris-Foulkes estimate   =     -77.19087620 Ry
     estimated scf accuracy    <       0.00029540 Ry

     iteration # 20     ecut=    80.00 Ry     beta= 0.40
     Davidson diagonalization with overlap
     ethr =  1.05E-08,  avg # of iterations =  7.0

     total cpu time spent up to now is      816.2 secs

     total energy              =     -77.19081304 Ry
     Harris-Foulkes estimate   =     -77.19081713 Ry
     estimated scf accuracy    <       0.00002339 Ry

     iteration # 21     ecut=    80.00 Ry     beta= 0.40
     Davidson diagonalization with overlap
     ethr =  1.05E-08,  avg # of iterations =  7.0

     total cpu time spent up to now is      823.4 secs

     total energy              =     -77.19081467 Ry
     Harris-Foulkes estimate   =     -77.19081514 Ry
     estimated scf accuracy    <       0.00000203 Ry

     iteration # 22     ecut=    80.00 Ry     beta= 0.40
     Davidson diagonalization with overlap
     ethr =  3.98E-09,  avg # of iterations =  4.0

     total cpu time spent up to now is      829.5 secs

     End of self-consistent calculation

          k = 0.0000 0.0000 0.0000 (252395 PWs)   bands (ev):

    -9.9941  -9.1258  -9.1252  -9.1013  -8.9846  -8.9845  -8.4028  -7.4898
    -7.4330  -7.4327  -6.8938  -5.8300  -5.7777  -5.7777  -5.6604  -5.6603
    -4.8359  -4.8357  -4.1077  -3.9932  -3.3115  -3.2022  -3.2019  -3.1164
    -3.1159  -3.1043  -3.0913  -3.0424  -3.0423  -2.6453  -2.6450

     the Fermi energy is    -3.0630 ev

!    total energy              =     -77.19081456 Ry
     Harris-Foulkes estimate   =     -77.19081500 Ry
     estimated scf accuracy    <       0.00000060 Ry

     The total energy is the sum of the following terms:

     one-electron contribution =    -270.30447848 Ry
     hartree contribution      =     139.77481864 Ry
     xc contribution           =     -33.43110420 Ry
     ewald contribution        =      86.88103284 Ry
     smearing contrib. (-TS)   =      -0.11108336 Ry

     convergence has been achieved in  22 iterations

     Forces acting on atoms (cartesian axes, Ry/au):

     atom    1 type  1   force =    -0.00003345   -0.00554151    0.00000000
     atom    2 type  1   force =    -0.00874874   -0.01785793    0.00000000
     atom    3 type  1   force =     0.01117668   -0.00646027    0.00000000
     atom    4 type  1   force =     0.00003481   -0.00003090    0.00000000
     atom    5 type  1   force =    -0.00483443    0.00278430    0.00000000
     atom    6 type  1   force =     0.00003399   -0.00000568    0.00000000
     atom    7 type  1   force =     0.00477963    0.00277866    0.00000000
     atom    8 type  1   force =     0.01105959    0.01650847    0.00000000
     atom    9 type  1   force =    -0.00914541   -0.00527025    0.00000000
     atom   10 type  1   force =    -0.01981311    0.00132815    0.00000000
     atom   11 type  1   force =    -0.00000343    0.01295784    0.00000000
     atom   12 type  1   force =     0.01981796    0.00131198    0.00000000
     atom   13 type  1   force =    -0.01121453   -0.00647224    0.00000000
     atom   14 type  1   force =     0.00878852   -0.01784320    0.00000000
     atom   15 type  1   force =    -0.00000119    0.01056125    0.00000000
     atom   16 type  1   force =    -0.01104247    0.01650966    0.00000000
     atom   17 type  1   force =     0.00914560   -0.00525833    0.00000000

     Total force =     0.057429     Total SCF correction =     0.000533


     Computing stress (Cartesian axis) and pressure

          total   stress  (Ry/bohr**3)                   (kbar)     P=   -1.91
  -0.00001951  -0.00000000   0.00000000         -2.87     -0.00      0.00
  -0.00000000  -0.00001952   0.00000000         -0.00     -2.87      0.00
   0.00000000   0.00000000   0.00000000          0.00      0.00      0.00


     number of scf cycles    =   7
     number of bfgs steps    =   6

     enthalpy old            =     -77.1828638985 Ry
     enthalpy new            =     -77.1908145613 Ry

     CASE: enthalpy_new < enthalpy_old

     new trust radius        =       0.2524673036 bohr
     new conv_thr            =       0.0000010000 Ry

     new unit-cell volume =  20528.02115 a.u.^3 (  3041.93885 Ang^3 )
     density =      0.27823 g/cm^3

CELL_PARAMETERS (alat= 25.26072511)
   0.991394881   0.000005589   0.000000000
  -0.495692601   0.858575538   0.000000000
   0.000000000   0.000000000   1.496177267

ATOMIC_POSITIONS (angstrom)
Al       0.000074263   2.543808082   0.000000000
Al       2.255668891   1.249216386   0.000000000
Al       4.329609695   2.601187014   0.000000000
Al       6.626374383   1.275502518   0.000000000
Al      -2.214458563   6.379565559   0.000000000
Al       0.000051132   5.100915052   0.000000000
Al       2.214588519   6.379502001   0.000000000
Al       4.463617080   5.073270470   0.000000000
Al      -4.742942516  10.013588381   0.000000000
Al      -2.207876081   8.980354358   0.000000000
Al      -0.000001518  10.100217712   0.000000000
Al       2.207971824   8.980405443   0.000000000
Al       8.922936182   2.601373220   0.000000000
Al      10.996615847   1.249415663   0.000000000
Al       6.626404900   6.752048401   0.000000000
Al       8.788864748   5.073226583   0.000000000
Al       4.743143809  10.013925774   0.000000000



     Writing output data file 18al_planar_2x2_vcr.save/
     NEW-OLD atomic charge density approx. for the potential

     negative rho (up, down):  7.403E-06 0.000E+00
     extrapolated charge   50.64763, renormalised to   51.00000

     total cpu time spent up to now is      867.6 secs

     Self-consistent Calculation

     iteration #  1     ecut=    80.00 Ry     beta= 0.40
     Davidson diagonalization with overlap
     ethr =  1.00E-06,  avg # of iterations = 10.0

     negative rho (up, down):  4.203E-06 0.000E+00

     total cpu time spent up to now is      880.9 secs

     total energy              =     -77.18632037 Ry
     Harris-Foulkes estimate   =     -78.91209195 Ry
     estimated scf accuracy    <       0.01963692 Ry

     iteration #  2     ecut=    80.00 Ry     beta= 0.40
     Davidson diagonalization with overlap
     ethr =  3.85E-05,  avg # of iterations =  9.0

     negative rho (up, down):  3.593E-06 0.000E+00

     total cpu time spent up to now is      889.2 secs

     total energy              =     -77.18839104 Ry
     Harris-Foulkes estimate   =     -77.21656503 Ry
     estimated scf accuracy    <       0.17287253 Ry

     iteration #  3     ecut=    80.00 Ry     beta= 0.40
     Davidson diagonalization with overlap
     ethr =  3.85E-05,  avg # of iterations =  4.0

     negative rho (up, down):  2.995E-06 0.000E+00

     total cpu time spent up to now is      895.9 secs

     total energy              =     -77.19957185 Ry
     Harris-Foulkes estimate   =     -77.20019651 Ry
     estimated scf accuracy    <       0.00677309 Ry

     iteration #  4     ecut=    80.00 Ry     beta= 0.40
     Davidson diagonalization with overlap
     ethr =  1.33E-05,  avg # of iterations =  2.0

     negative rho (up, down):  1.775E-06 0.000E+00

     total cpu time spent up to now is      901.5 secs

     total energy              =     -77.19897459 Ry
     Harris-Foulkes estimate   =     -77.19976385 Ry
     estimated scf accuracy    <       0.00457029 Ry

     iteration #  5     ecut=    80.00 Ry     beta= 0.40
     Davidson diagonalization with overlap
     ethr =  8.96E-06,  avg # of iterations =  1.0

     negative rho (up, down):  2.111E-07 0.000E+00

     total cpu time spent up to now is      906.9 secs

     total energy              =     -77.19852701 Ry
     Harris-Foulkes estimate   =     -77.19935378 Ry
     estimated scf accuracy    <       0.00317892 Ry

     iteration #  6     ecut=    80.00 Ry     beta= 0.40
     Davidson diagonalization with overlap
     ethr =  6.23E-06,  avg # of iterations =  4.0

     negative rho (up, down):  1.559E-07 0.000E+00

     total cpu time spent up to now is      913.2 secs

     total energy              =     -77.19907112 Ry
     Harris-Foulkes estimate   =     -77.19914218 Ry
     estimated scf accuracy    <       0.00047755 Ry

     iteration #  7     ecut=    80.00 Ry     beta= 0.40
     Davidson diagonalization with overlap
     ethr =  9.36E-07,  avg # of iterations =  4.0

     negative rho (up, down):  1.217E-07 0.000E+00

     total cpu time spent up to now is      920.3 secs

     total energy              =     -77.19909418 Ry
     Harris-Foulkes estimate   =     -77.19918814 Ry
     estimated scf accuracy    <       0.00055986 Ry

     iteration #  8     ecut=    80.00 Ry     beta= 0.40
     Davidson diagonalization with overlap
     ethr =  9.36E-07,  avg # of iterations =  1.0

     negative rho (up, down):  6.402E-08 0.000E+00

     total cpu time spent up to now is      925.8 secs

     total energy              =     -77.19907881 Ry
     Harris-Foulkes estimate   =     -77.19911503 Ry
     estimated scf accuracy    <       0.00018824 Ry

     iteration #  9     ecut=    80.00 Ry     beta= 0.40
     Davidson diagonalization with overlap
     ethr =  3.69E-07,  avg # of iterations =  3.0

     negative rho (up, down):  3.747E-08 0.000E+00

     total cpu time spent up to now is      931.9 secs

     total energy              =     -77.19909018 Ry
     Harris-Foulkes estimate   =     -77.19909633 Ry
     estimated scf accuracy    <       0.00003426 Ry

     iteration # 10     ecut=    80.00 Ry     beta= 0.40
     Davidson diagonalization with overlap
     ethr =  6.72E-08,  avg # of iterations =  5.0

     negative rho (up, down):  4.131E-08 0.000E+00

     total cpu time spent up to now is      939.7 secs

     total energy              =     -77.19909803 Ry
     Harris-Foulkes estimate   =     -77.19910011 Ry
     estimated scf accuracy    <       0.00001069 Ry

     iteration # 11     ecut=    80.00 Ry     beta= 0.40
     Davidson diagonalization with overlap
     ethr =  2.10E-08,  avg # of iterations =  3.0

     negative rho (up, down):  1.220E-08 0.000E+00

     total cpu time spent up to now is      945.5 secs

     total energy              =     -77.19909787 Ry
     Harris-Foulkes estimate   =     -77.19909901 Ry
     estimated scf accuracy    <       0.00000563 Ry

     iteration # 12     ecut=    80.00 Ry     beta= 0.40
     Davidson diagonalization with overlap
     ethr =  1.10E-08,  avg # of iterations =  5.0

     total cpu time spent up to now is      951.7 secs

     total energy              =     -77.19909837 Ry
     Harris-Foulkes estimate   =     -77.19909900 Ry
     estimated scf accuracy    <       0.00000366 Ry

     iteration # 13     ecut=    80.00 Ry     beta= 0.40
     Davidson diagonalization with overlap
     ethr =  7.17E-09,  avg # of iterations =  5.0

     total cpu time spent up to now is      957.4 secs

     End of self-consistent calculation

          k = 0.0000 0.0000 0.0000 (252395 PWs)   bands (ev):

   -10.0309  -9.1749  -9.1706  -9.1067  -8.9877  -8.9861  -8.4885  -7.5048
    -7.4383  -7.4355  -7.0310  -5.8334  -5.8018  -5.8011  -5.6937  -5.6879
    -4.9032  -4.9012  -4.4672  -4.0161  -3.3585  -3.1876  -3.1855  -3.1423
    -3.1398  -3.0844  -3.0377  -3.0373  -3.0237  -2.6944  -2.6411

     the Fermi energy is    -3.0596 ev

!    total energy              =     -77.19909837 Ry
     Harris-Foulkes estimate   =     -77.19909881 Ry
     estimated scf accuracy    <       0.00000054 Ry

     The total energy is the sum of the following terms:

     one-electron contribution =    -271.24042980 Ry
     hartree contribution      =     140.13868671 Ry
     xc contribution           =     -33.38052758 Ry
     ewald contribution        =      87.39815179 Ry
     smearing contrib. (-TS)   =      -0.11497949 Ry

     convergence has been achieved in  13 iterations

     Forces acting on atoms (cartesian axes, Ry/au):

     atom    1 type  1   force =    -0.00112442   -0.00645383    0.00000000
     atom    2 type  1   force =    -0.01392017   -0.02543078    0.00000000
     atom    3 type  1   force =     0.01650342   -0.00957066    0.00000000
     atom    4 type  1   force =     0.00090103   -0.00041367    0.00000000
     atom    5 type  1   force =    -0.00699853    0.00383037    0.00000000
     atom    6 type  1   force =     0.00182568   -0.00074461    0.00000000
     atom    7 type  1   force =     0.00491670    0.00393446    0.00000000
     atom    8 type  1   force =     0.01495988    0.02487248    0.00000000
     atom    9 type  1   force =    -0.00321987   -0.00142667    0.00000000
     atom   10 type  1   force =    -0.02901802   -0.00026536    0.00000000
     atom   11 type  1   force =    -0.00032428    0.02079404    0.00000000
     atom   12 type  1   force =     0.02940022   -0.00089909    0.00000000
     atom   13 type  1   force =    -0.01838119   -0.01027482    0.00000000
     atom   14 type  1   force =     0.01563703   -0.02501511    0.00000000
     atom   15 type  1   force =    -0.00040368    0.00353022    0.00000000
     atom   16 type  1   force =    -0.01410743    0.02549988    0.00000000
     atom   17 type  1   force =     0.00335362   -0.00196685    0.00000000

     Total force =     0.080876     Total SCF correction =     0.000526


     Computing stress (Cartesian axis) and pressure

          total   stress  (Ry/bohr**3)                   (kbar)     P=   -2.52
  -0.00002614   0.00000101   0.00000000         -3.85      0.15      0.00
   0.00000101  -0.00002532   0.00000000          0.15     -3.72      0.00
   0.00000000   0.00000000  -0.00000001          0.00      0.00     -0.00


     number of scf cycles    =   8
     number of bfgs steps    =   7

     enthalpy old            =     -77.1908145613 Ry
     enthalpy new            =     -77.1990983688 Ry

     CASE: enthalpy_new < enthalpy_old

     new trust radius        =       0.3773988611 bohr
     new conv_thr            =       0.0000010000 Ry

     new unit-cell volume =  20291.78655 a.u.^3 (  3006.93250 Ang^3 )
     density =      0.28147 g/cm^3

CELL_PARAMETERS (alat= 25.26072511)
   0.985650378   0.000061621   0.000000000
  -0.492771823   0.853613409   0.000000000
   0.000000000   0.000000000   1.496177267

ATOMIC_POSITIONS (angstrom)
Al      -0.000967829   2.520598757   0.000000000
Al       2.254054447   1.206999201   0.000000000
Al       4.270808961   2.605957068   0.000000000
Al       6.589107404   1.268227183   0.000000000
Al      -2.210235644   6.347784555   0.000000000
Al       0.002318578   5.070806660   0.000000000
Al       2.208852372   6.348021998   0.000000000
Al       4.474114533   5.052170347   0.000000000
Al      -4.886654055   9.856883719   0.000000000
Al      -2.219467177   8.955162289   0.000000000
Al       0.000161153  10.004852512   0.000000000
Al       2.220932700   8.954771224   0.000000000
Al       8.903270766   2.605737270   0.000000000
Al      10.923304296   1.208193214   0.000000000
Al       6.588054619   6.911724611   0.000000000
Al       8.703004164   5.052969627   0.000000000
Al       4.888156930   9.857345092   0.000000000



     Writing output data file 18al_planar_2x2_vcr.save/
     NEW-OLD atomic charge density approx. for the potential

     negative rho (up, down):  1.691E-05 0.000E+00
     extrapolated charge   50.40675, renormalised to   51.00000

     total cpu time spent up to now is      995.7 secs

     Self-consistent Calculation

     iteration #  1     ecut=    80.00 Ry     beta= 0.40
     Davidson diagonalization with overlap
     ethr =  1.00E-06,  avg # of iterations = 16.0

     negative rho (up, down):  9.873E-06 0.000E+00

     total cpu time spent up to now is     1011.3 secs

     total energy              =     -77.19405906 Ry
     Harris-Foulkes estimate   =     -80.11211818 Ry
     estimated scf accuracy    <       0.02438319 Ry

     iteration #  2     ecut=    80.00 Ry     beta= 0.40
     Davidson diagonalization with overlap
[...]
    -4.8410  -4.7431  -4.6261  -4.3619  -4.1934  -4.1544  -3.4194  -3.4117
    -3.3405  -3.2479  -2.1193  -2.1016  -2.0942  -1.9541  -1.2654

     the Fermi energy is    -2.9709 ev

!    total energy              =     -78.05943792 Ry
     Harris-Foulkes estimate   =     -78.05943793 Ry
     estimated scf accuracy    <          4.9E-09 Ry

     The total energy is the sum of the following terms:

     one-electron contribution =    -366.23156812 Ry
     hartree contribution      =     188.17133958 Ry
     xc contribution           =     -34.77972208 Ry
     ewald contribution        =     134.76231535 Ry
     smearing contrib. (-TS)   =       0.01819734 Ry

     convergence has been achieved in   3 iterations

     Forces acting on atoms (cartesian axes, Ry/au):

     atom    1 type  1   force =     0.00000360    0.00000451    0.00000000
     atom    2 type  1   force =    -0.00000195    0.00000323    0.00000000
     atom    3 type  1   force =    -0.00000062    0.00000408    0.00000000
     atom    4 type  1   force =    -0.00000084   -0.00000077    0.00000000
     atom    5 type  1   force =     0.00000034   -0.00000188    0.00000000
     atom    6 type  1   force =     0.00000009   -0.00000613    0.00000000
     atom    7 type  1   force =    -0.00000463    0.00000170    0.00000000
     atom    8 type  1   force =    -0.00000257   -0.00000042    0.00000000
     atom    9 type  1   force =     0.00000189   -0.00000173    0.00000000
     atom   10 type  1   force =    -0.00000136   -0.00000411    0.00000000
     atom   11 type  1   force =    -0.00000298   -0.00000116    0.00000000
     atom   12 type  1   force =    -0.00000094    0.00000111    0.00000000
     atom   13 type  1   force =     0.00000433    0.00000130    0.00000000
     atom   14 type  1   force =     0.00000815    0.00000432    0.00000000
     atom   15 type  1   force =     0.00000172   -0.00000265    0.00000000
     atom   16 type  1   force =     0.00000001   -0.00000230    0.00000000
     atom   17 type  1   force =    -0.00000424    0.00000091    0.00000000

     Total force =     0.000018     Total SCF correction =     0.000073
     SCF correction compared to forces is large: reduce conv_thr to get better values


     Computing stress (Cartesian axis) and pressure

          total   stress  (Ry/bohr**3)                   (kbar)     P=   -0.00
  -0.00000000   0.00000001   0.00000000         -0.00      0.00      0.00
   0.00000001   0.00000000   0.00000000          0.00      0.00      0.00
   0.00000000   0.00000000  -0.00000001          0.00      0.00     -0.00


     bfgs converged in 245 scf cycles and 235 bfgs steps
     (criteria: energy <  1.0E-05 Ry, force <  1.0E-04Ry/Bohr, cell <  5.0E-05kbar)

     End of BFGS Geometry Optimization

     Final enthalpy =     -78.0594379209 Ry
Begin final coordinates
     new unit-cell volume =  15095.20404 a.u.^3 (  2236.87843 Ang^3 )
     density =      0.37837 g/cm^3

CELL_PARAMETERS (alat= 25.26072511)
   0.764609202   0.200605488   0.000000000
  -0.208653724   0.763870536   0.000000000
   0.000000000   0.000000000   1.496177267

ATOMIC_POSITIONS (angstrom)
Al      -0.188764460   3.312054198   0.000000000
Al       2.161593637   2.212258443   0.000000000
Al       4.729569677   3.174250168   0.000000000
Al       6.606191112   1.071585971   0.000000000
Al      -1.919045909   7.087110631   0.000000000
Al       0.198741544   5.696047764   0.000000000
Al       2.697925739   5.016638156   0.000000000
Al       5.113827388   6.131331409   0.000000000
Al      -1.247574604   9.747991179   0.000000000
Al       0.704918243   8.103814224   0.000000000
Al       1.340822190  10.626921500   0.000000000
Al       3.237242405   8.233908467   0.000000000
Al       7.145413842   4.288977874   0.000000000
Al       9.644612021   3.609660776   0.000000000
Al       5.713406363   8.889753148   0.000000000
Al       7.681768015   7.093427882   0.000000000
Al       6.349327038  11.412859598   0.000000000
End final coordinates



     Writing output data file 18al_planar_2x2_vcr.save/

     A final scf calculation at the relaxed structure.
     The G-vectors are recalculated for the final unit cell
     Results may differ from those at the preceding step.
 
     Parallelization info
     --------------------
     sticks:   dense  smooth     PW     G-vecs:    dense   smooth      PW
     Min        1269    1269    318               182383   182383   22804
     Max        1270    1270    319               182386   182386   22806
     Sum       10153   10153   2545              1459067  1459067  182435
 


     bravais-lattice index     =            4
     lattice parameter (alat)  =      25.2607  a.u.
     unit-cell volume          =   15095.2040 (a.u.)^3
     number of atoms/cell      =           17
     number of atomic types    =            1
     number of electrons       =        51.00
     number of Kohn-Sham states=           31
     kinetic-energy cutoff     =      80.0000  Ry
     charge density cutoff     =     320.0000  Ry
     convergence threshold     =      1.0E-08
     mixing beta               =       0.4000
     number of iterations used =            8  plain     mixing
     Exchange-correlation      = PBE ( 1  4  3  4 0 0)

     celldm(1)=  25.260725  celldm(2)=   0.000000  celldm(3)=   1.496177
     celldm(4)=   0.000000  celldm(5)=   0.000000  celldm(6)=   0.000000

     crystal axes: (cart. coord. in units of alat)
               a(1) = (   0.764609   0.200605   0.000000 )  
               a(2) = (  -0.208654   0.763871   0.000000 )  
               a(3) = (   0.000000   0.000000   1.496177 )  

     reciprocal axes: (cart. coord. in units 2 pi/alat)
               b(1) = (  1.220397  0.333356  0.000000 )  
               b(2) = ( -0.320497  1.221577  0.000000 )  
               b(3) = (  0.000000  0.000000  0.668370 )  


     PseudoPot. # 1 for Al read from file:
     ./Al.upf
     MD5 check sum: 4974d48a734c9d7d1eb6780a1419d19d
     Pseudo is Norm-conserving + core correction, Zval =  3.0
     Generated using ONCVPSP code by D. R. Hamann
     Using radial grid of 1876 points,  6 beta functions with: 
                l(1) =   0
                l(2) =   0
                l(3) =   1
                l(4) =   1
                l(5) =   2
                l(6) =   2

     atomic species   valence    mass     pseudopotential
        Al             3.00    29.98200     Al( 1.00)

      2 Sym. Ops. (no inversion) found



   Cartesian axes

     site n.     atom                  positions (alat units)
         1           Al  tau(   1) = (  -0.0141213   0.2477710   0.0000000  )
         2           Al  tau(   2) = (   0.1617064   0.1654965   0.0000000  )
         3           Al  tau(   3) = (   0.3538137   0.2374620   0.0000000  )
         4           Al  tau(   4) = (   0.4942016   0.0801641   0.0000000  )
         5           Al  tau(   5) = (  -0.1435616   0.5301787   0.0000000  )
         6           Al  tau(   6) = (   0.0148676   0.4261149   0.0000000  )
         7           Al  tau(   7) = (   0.2018288   0.3752890   0.0000000  )
         8           Al  tau(   8) = (   0.3825596   0.4586779   0.0000000  )
         9           Al  tau(   9) = (  -0.0933296   0.7292361   0.0000000  )
        10           Al  tau(  10) = (   0.0527341   0.6062371   0.0000000  )
        11           Al  tau(  11) = (   0.1003054   0.7949879   0.0000000  )
        12           Al  tau(  12) = (   0.2421744   0.6159693   0.0000000  )
        13           Al  tau(  13) = (   0.5345403   0.3208536   0.0000000  )
        14           Al  tau(  14) = (   0.7215025   0.2700346   0.0000000  )
        15           Al  tau(  15) = (   0.4274134   0.6650323   0.0000000  )
        16           Al  tau(  16) = (   0.5746643   0.5306513   0.0000000  )
        17           Al  tau(  17) = (   0.4749859   0.8537831   0.0000000  )

     number of k points=     1  Methfessel-Paxton smearing, width (Ry)=  0.0500
                       cart. coord. in units 2pi/alat
        k(    1) = (   0.0000000   0.0000000   0.0000000), wk =   2.0000000

     Dense  grid:  1459067 G-vectors     FFT dimensions: ( 120, 120, 216)

     Estimated max dynamical RAM per process >     320.35 MB

     Estimated total dynamical RAM >       2.50 GB

     Initial potential from superposition of free atoms

     starting charge   50.95840, renormalised to   51.00000

     negative rho (up, down):  4.033E-05 0.000E+00
     Starting wfcs are   68 randomized atomic wfcs

     total cpu time spent up to now is    24919.5 secs

     Self-consistent Calculation

     iteration #  1     ecut=    80.00 Ry     beta= 0.40
     Davidson diagonalization with overlap
     c_bands:  1 eigenvalues not converged
     ethr =  1.00E-06,  avg # of iterations = 20.0

     negative rho (up, down):  6.200E-06 0.000E+00

     total cpu time spent up to now is    24935.9 secs

     total energy              =     -78.01869917 Ry
     Harris-Foulkes estimate   =     -78.23866455 Ry
     estimated scf accuracy    <       0.55604330 Ry

     iteration #  2     ecut=    80.00 Ry     beta= 0.40
     Davidson diagonalization with overlap
     ethr =  1.09E-03,  avg # of iterations =  2.0

     negative rho (up, down):  4.160E-06 0.000E+00

     total cpu time spent up to now is    24941.1 secs

     total energy              =     -77.97247162 Ry
     Harris-Foulkes estimate   =     -78.15256745 Ry
     estimated scf accuracy    <       0.59654721 Ry

     iteration #  3     ecut=    80.00 Ry     beta= 0.40
     Davidson diagonalization with overlap
     ethr =  1.09E-03,  avg # of iterations =  3.0

     negative rho (up, down):  8.732E-07 0.000E+00

     total cpu time spent up to now is    24946.7 secs

     total energy              =     -78.04308859 Ry
     Harris-Foulkes estimate   =     -78.08795072 Ry
     estimated scf accuracy    <       0.15707230 Ry

     iteration #  4     ecut=    80.00 Ry     beta= 0.40
     Davidson diagonalization with overlap
     ethr =  3.08E-04,  avg # of iterations =  2.0

     negative rho (up, down):  3.444E-07 0.000E+00

     total cpu time spent up to now is    24951.4 secs

     total energy              =     -78.05420795 Ry
     Harris-Foulkes estimate   =     -78.05733013 Ry
     estimated scf accuracy    <       0.01274454 Ry

     iteration #  5     ecut=    80.00 Ry     beta= 0.40
     Davidson diagonalization with overlap
     ethr =  2.50E-05,  avg # of iterations =  4.0

     negative rho (up, down):  2.201E-07 0.000E+00

     total cpu time spent up to now is    24958.0 secs

     total energy              =     -78.05903882 Ry
     Harris-Foulkes estimate   =     -78.06008836 Ry
     estimated scf accuracy    <       0.00590856 Ry

     iteration #  6     ecut=    80.00 Ry     beta= 0.40
     Davidson diagonalization with overlap
     ethr =  1.16E-05,  avg # of iterations =  1.0

     negative rho (up, down):  9.619E-08 0.000E+00

     total cpu time spent up to now is    24963.0 secs

     total energy              =     -78.05885703 Ry
     Harris-Foulkes estimate   =     -78.05958017 Ry
     estimated scf accuracy    <       0.00201481 Ry

     iteration #  7     ecut=    80.00 Ry     beta= 0.40
     Davidson diagonalization with overlap
     ethr =  3.95E-06,  avg # of iterations =  3.0

     negative rho (up, down):  1.283E-08 0.000E+00

     total cpu time spent up to now is    24968.6 secs

     total energy              =     -78.05930193 Ry
     Harris-Foulkes estimate   =     -78.05937971 Ry
     estimated scf accuracy    <       0.00056324 Ry

     iteration #  8     ecut=    80.00 Ry     beta= 0.40
     Davidson diagonalization with overlap
     ethr =  1.10E-06,  avg # of iterations =  1.0

     total cpu time spent up to now is    24973.2 secs

     total energy              =     -78.05929362 Ry
     Harris-Foulkes estimate   =     -78.05933525 Ry
     estimated scf accuracy    <       0.00021254 Ry

     iteration #  9     ecut=    80.00 Ry     beta= 0.40
     Davidson diagonalization with overlap
     ethr =  4.17E-07,  avg # of iterations =  3.0

     total cpu time spent up to now is    24978.8 secs

     total energy              =     -78.05931078 Ry
     Harris-Foulkes estimate   =     -78.05931487 Ry
     estimated scf accuracy    <       0.00001848 Ry

     iteration # 10     ecut=    80.00 Ry     beta= 0.40
     Davidson diagonalization with overlap
     ethr =  3.62E-08,  avg # of iterations =  3.0

     total cpu time spent up to now is    24985.1 secs

     total energy              =     -78.05931541 Ry
     Harris-Foulkes estimate   =     -78.05931641 Ry
     estimated scf accuracy    <       0.00000257 Ry

     iteration # 11     ecut=    80.00 Ry     beta= 0.40
     Davidson diagonalization with overlap
     ethr =  5.04E-09,  avg # of iterations =  3.0

     total cpu time spent up to now is    24991.9 secs

     total energy              =     -78.05931579 Ry
     Harris-Foulkes estimate   =     -78.05931629 Ry
     estimated scf accuracy    <       0.00000104 Ry

     iteration # 12     ecut=    80.00 Ry     beta= 0.40
     Davidson diagonalization with overlap
     ethr =  2.04E-09,  avg # of iterations =  3.0

     total cpu time spent up to now is    24998.2 secs

     total energy              =     -78.05931596 Ry
     Harris-Foulkes estimate   =     -78.05931626 Ry
     estimated scf accuracy    <       0.00000114 Ry

     iteration # 13     ecut=    80.00 Ry     beta= 0.40
     Davidson diagonalization with overlap
     ethr =  2.04E-09,  avg # of iterations =  2.0

     total cpu time spent up to now is    25003.8 secs

     total energy              =     -78.05931603 Ry
     Harris-Foulkes estimate   =     -78.05931606 Ry
     estimated scf accuracy    <       0.00000008 Ry

     iteration # 14     ecut=    80.00 Ry     beta= 0.40
     Davidson diagonalization with overlap
     ethr =  1.58E-10,  avg # of iterations =  3.0

     total cpu time spent up to now is    25009.8 secs

     total energy              =     -78.05931605 Ry
     Harris-Foulkes estimate   =     -78.05931606 Ry
     estimated scf accuracy    <       0.00000006 Ry

     iteration # 15     ecut=    80.00 Ry     beta= 0.40
     Davidson diagonalization with overlap
     ethr =  1.11E-10,  avg # of iterations =  2.0

     total cpu time spent up to now is    25014.9 secs

     total energy              =     -78.05931604 Ry
     Harris-Foulkes estimate   =     -78.05931605 Ry
     estimated scf accuracy    <       0.00000002 Ry

     iteration # 16     ecut=    80.00 Ry     beta= 0.40
     Davidson diagonalization with overlap
     ethr =  4.88E-11,  avg # of iterations =  2.0

     total cpu time spent up to now is    25020.0 secs

     End of self-consistent calculation

          k = 0.0000 0.0000 0.0000 (182435 PWs)   bands (ev):

   -11.2072  -9.9748  -9.9327  -9.8260  -9.7395  -8.5718  -8.5418  -8.5032
    -8.3701  -6.2255  -6.1817  -6.0105  -5.8829  -5.2044  -5.0576  -4.9611
    -4.8409  -4.7431  -4.6261  -4.3619  -4.1933  -4.1544  -3.4194  -3.4117
    -3.3405  -3.2479  -2.1193  -2.1016  -2.0942  -1.9541  -1.2652

     the Fermi energy is    -2.9709 ev

!    total energy              =     -78.05931604 Ry
     Harris-Foulkes estimate   =     -78.05931604 Ry
     estimated scf accuracy    <          1.5E-09 Ry

     The total energy is the sum of the following terms:

     one-electron contribution =    -366.23132094 Ry
     hartree contribution      =     188.17124544 Ry
     xc contribution           =     -34.77975320 Ry
     ewald contribution        =     134.76231535 Ry
     smearing contrib. (-TS)   =       0.01819732 Ry

     convergence has been achieved in  16 iterations

     Forces acting on atoms (cartesian axes, Ry/au):

     atom    1 type  1   force =     0.00000264    0.00000349    0.00000000
     atom    2 type  1   force =     0.00000406    0.00000063    0.00000000
     atom    3 type  1   force =    -0.00000171    0.00000605    0.00000000
     atom    4 type  1   force =    -0.00000191   -0.00000137    0.00000000
     atom    5 type  1   force =    -0.00000101   -0.00000139    0.00000000
     atom    6 type  1   force =     0.00000100   -0.00000597    0.00000000
     atom    7 type  1   force =     0.00000046    0.00000102    0.00000000
     atom    8 type  1   force =     0.00000067   -0.00000161    0.00000000
     atom    9 type  1   force =     0.00000106   -0.00000205    0.00000000
     atom   10 type  1   force =    -0.00000244   -0.00000511    0.00000000
     atom   11 type  1   force =    -0.00000511   -0.00000574    0.00000000
     atom   12 type  1   force =     0.00000025    0.00000210    0.00000000
     atom   13 type  1   force =    -0.00000200    0.00000228    0.00000000
     atom   14 type  1   force =     0.00000815    0.00000417    0.00000000
     atom   15 type  1   force =     0.00000365    0.00000229    0.00000000
     atom   16 type  1   force =    -0.00000510   -0.00000089    0.00000000
     atom   17 type  1   force =    -0.00000267    0.00000209    0.00000000

     Total force =     0.000019     Total SCF correction =     0.000035
     SCF correction compared to forces is large: reduce conv_thr to get better values


     Computing stress (Cartesian axis) and pressure

          total   stress  (Ry/bohr**3)                   (kbar)     P=    0.00
   0.00000003   0.00000001   0.00000000          0.00      0.00      0.00
   0.00000001   0.00000003   0.00000000          0.00      0.00      0.00
   0.00000000   0.00000000  -0.00000001          0.00      0.00     -0.00


     Writing output data file 18al_planar_2x2_vcr.save/
 
     init_run     :     20.86s CPU     22.27s WALL (       2 calls)
     electrons    :  14650.97s CPU  14994.54s WALL (     246 calls)
     update_pot   :   3259.37s CPU   3276.81s WALL (     244 calls)
     forces       :   2054.15s CPU   2078.42s WALL (     246 calls)
     stress       :   4483.57s CPU   4548.32s WALL (     246 calls)

     Called by init_run:
     wfcinit      :      6.03s CPU      7.17s WALL (       2 calls)
     potinit      :      5.44s CPU      5.58s WALL (       2 calls)
     hinit0       :      7.51s CPU      7.59s WALL (       2 calls)

     Called by electrons:
     c_bands      :  11377.21s CPU  11516.71s WALL (    1969 calls)
     sum_band     :   1789.71s CPU   1811.26s WALL (    1969 calls)
     v_of_rho     :   1341.07s CPU   1455.30s WALL (    2144 calls)
     mix_rho      :    231.42s CPU    285.12s WALL (    1969 calls)

     Called by c_bands:
     init_us_2    :    226.81s CPU    229.11s WALL (    3940 calls)
     cegterg      :   9484.68s CPU   9616.43s WALL (    1969 calls)

     Called by sum_band:

     Called by *egterg:
     h_psi        :   8547.19s CPU   8657.17s WALL (    8710 calls)
     g_psi        :     41.59s CPU     41.82s WALL (    6739 calls)
     cdiaghg      :     21.16s CPU     21.45s WALL (    8393 calls)

     Called by h_psi:
     h_psi:pot    :   8527.48s CPU   8619.60s WALL (    8710 calls)
     h_psi:calbec :    978.57s CPU    980.87s WALL (    8710 calls)
     vloc_psi     :   6578.73s CPU   6667.06s WALL (    8710 calls)
     add_vuspsi   :    970.05s CPU    971.59s WALL (    8710 calls)

     General routines
     calbec       :   1181.56s CPU   1184.36s WALL (    9940 calls)
     fft          :   1359.32s CPU   1467.77s WALL (   27905 calls)
     ffts         :     77.82s CPU     79.22s WALL (    1969 calls)
     fftw         :   6941.06s CPU   7039.32s WALL (  404641 calls)
 
     Parallel routines
     fft_scatt_xy :   1481.67s CPU   1493.15s WALL (  434515 calls)
     fft_scatt_yz :   3142.54s CPU   3245.57s WALL (  434515 calls)
 
     PWSCF        :     6h48m CPU       48h 6m WALL

      57h
 
   This run was terminated on:   1: 3:51  26Nov2020            

=------------------------------------------------------------------------------=
   JOB DONE.
=------------------------------------------------------------------------------=
