
     Program PWSCF v.6.3MaX starts on 26Nov2020 at 13:22:47 

     This program is part of the open-source Quantum ESPRESSO suite
     for quantum simulation of materials; please cite
         "P. Giannozzi et al., J. Phys.:Condens. Matter 21 395502 (2009);
         "P. Giannozzi et al., J. Phys.:Condens. Matter 29 465901 (2017);
          URL http://www.quantum-espresso.org", 
     in publications or presentations arising from this work. More details at
     http://www.quantum-espresso.org/quote

     Parallel version (MPI), running on     2 processors

     MPI processes distributed on     1 nodes
     R & G space division:  proc/nbgrp/npool/nimage =       2
     Waiting for input...
     Reading input from standard input

     Current dimensions of program PWSCF are:
     Max number of different atomic species (ntypx) = 10
     Max number of k-points (npk) =  40000
     Max angular momentum in pseudopotentials (lmaxx) =  3

     Subspace diagonalization in iterative solution of the eigenvalue problem:
     a serial algorithm will be used

 
     Parallelization info
     --------------------
     sticks:   dense  smooth     PW     G-vecs:    dense   smooth      PW
     Min        5092    5092   1354               386744   386744   52878
     Max        5093    5093   1355               386745   386745   52881
     Sum       10185   10185   2709               773489   773489  105759
 


     bravais-lattice index     =            0
     lattice parameter (alat)  =      10.0000  a.u.
     unit-cell volume          =    8000.0000 (a.u.)^3
     number of atoms/cell      =            1
     number of atomic types    =            1
     number of electrons       =         3.00
     number of Kohn-Sham states=            6
     kinetic-energy cutoff     =      80.0000  Ry
     charge density cutoff     =     320.0000  Ry
     convergence threshold     =      1.0E-06
     mixing beta               =       0.4000
     number of iterations used =            8  plain     mixing
     Exchange-correlation      = PBE ( 1  4  3  4 0 0)
     nstep                     =          300


     celldm(1)=  10.000000  celldm(2)=   0.000000  celldm(3)=   0.000000
     celldm(4)=   0.000000  celldm(5)=   0.000000  celldm(6)=   0.000000

     crystal axes: (cart. coord. in units of alat)
               a(1) = (   2.000000   0.000000   0.000000 )  
               a(2) = (   0.000000   2.000000   0.000000 )  
               a(3) = (   0.000000   0.000000   2.000000 )  

     reciprocal axes: (cart. coord. in units 2 pi/alat)
               b(1) = (  0.500000  0.000000  0.000000 )  
               b(2) = (  0.000000  0.500000  0.000000 )  
               b(3) = (  0.000000  0.000000  0.500000 )  


     PseudoPot. # 1 for Al read from file:
     ../QE_pseudo/Al.upf
     MD5 check sum: 4974d48a734c9d7d1eb6780a1419d19d
     Pseudo is Norm-conserving + core correction, Zval =  3.0
     Generated using ONCVPSP code by D. R. Hamann
     Using radial grid of 1876 points,  6 beta functions with: 
                l(1) =   0
                l(2) =   0
                l(3) =   1
                l(4) =   1
                l(5) =   2
                l(6) =   2

     atomic species   valence    mass     pseudopotential
        Al             3.00    29.98200     Al( 1.00)

     48 Sym. Ops., with inversion, found



   Cartesian axes

     site n.     atom                  positions (alat units)
         1           Al  tau(   1) = (   1.0000000   1.0000000   1.0000000  )

     number of k points=    10  Marzari-Vanderbilt smearing, width (Ry)=  0.0200
                       cart. coord. in units 2pi/alat
        k(    1) = (   0.0000000   0.0000000   0.0000000), wk =   0.0312500
        k(    2) = (   0.0000000   0.0000000   0.1250000), wk =   0.1875000
        k(    3) = (   0.0000000   0.0000000  -0.2500000), wk =   0.0937500
        k(    4) = (   0.0000000   0.1250000   0.1250000), wk =   0.3750000
        k(    5) = (   0.0000000   0.1250000  -0.2500000), wk =   0.3750000
        k(    6) = (   0.0000000  -0.2500000  -0.2500000), wk =   0.0937500
        k(    7) = (   0.1250000   0.1250000   0.1250000), wk =   0.2500000
        k(    8) = (   0.1250000   0.1250000  -0.2500000), wk =   0.3750000
        k(    9) = (   0.1250000  -0.2500000  -0.2500000), wk =   0.1875000
        k(   10) = (  -0.2500000  -0.2500000  -0.2500000), wk =   0.0312500

     Dense  grid:   773489 G-vectors     FFT dimensions: ( 120, 120, 120)

     Estimated max dynamical RAM per process >     319.80 MB

     Estimated total dynamical RAM >     639.60 MB

     Initial potential from superposition of free atoms

     starting charge    2.99755, renormalised to    3.00000

     negative rho (up, down):  3.669E-05 0.000E+00
     Starting wfcs are    4 randomized atomic wfcs +    2 random wfcs

     total cpu time spent up to now is        5.6 secs

     Self-consistent Calculation

     iteration #  1     ecut=    80.00 Ry     beta= 0.40
     Davidson diagonalization with overlap
     ethr =  1.00E-02,  avg # of iterations =  8.2

     Threshold (ethr) on eigenvalues was too large:
     Diagonalizing with lowered threshold

     Davidson diagonalization with overlap
     c_bands:  1 eigenvalues not converged
     c_bands:  1 eigenvalues not converged
     c_bands:  1 eigenvalues not converged
     c_bands:  1 eigenvalues not converged
     c_bands:  2 eigenvalues not converged
     ethr =  6.93E-08,  avg # of iterations = 18.1

     total cpu time spent up to now is       53.9 secs

     total energy              =      -4.37447577 Ry
     Harris-Foulkes estimate   =      -4.37445717 Ry
     estimated scf accuracy    <       0.00000185 Ry

     iteration #  2     ecut=    80.00 Ry     beta= 0.40
     Davidson diagonalization with overlap
     ethr =  6.18E-08,  avg # of iterations =  6.3

     total cpu time spent up to now is       69.4 secs

     End of self-consistent calculation

          k = 0.0000 0.0000 0.0000 ( 96969 PWs)   bands (ev):

    -7.5358  -2.4900  -2.4900  -2.4900  -0.4252   0.6910

          k = 0.0000 0.0000 0.1250 ( 96709 PWs)   bands (ev):

    -7.5357  -2.4972  -2.4894  -2.4894  -0.3318   0.4521

          k = 0.0000 0.0000-0.2500 ( 96704 PWs)   bands (ev):

    -7.5357  -2.5043  -2.4888  -2.4888  -0.1752   0.1793

          k = 0.0000 0.1250 0.1250 ( 96664 PWs)   bands (ev):

    -7.5357  -2.4967  -2.4963  -2.4888  -0.2366   0.5126

          k = 0.0000 0.1250-0.2500 ( 96700 PWs)   bands (ev):

    -7.5356  -2.5034  -2.4957  -2.4882  -0.0717   0.2402

          k = 0.0000-0.2500-0.2500 ( 96688 PWs)   bands (ev):

    -7.5356  -2.5026  -2.5026  -2.4876   0.1026   0.4077

          k = 0.1250 0.1250 0.1250 ( 96606 PWs)   bands (ev):

    -7.5356  -2.4961  -2.4956  -2.4956  -0.1391   0.5898

          k = 0.1250 0.1250-0.2500 ( 96630 PWs)   bands (ev):

    -7.5356  -2.5026  -2.4952  -2.4949   0.0369   0.3016

          k = 0.1250-0.2500-0.2500 ( 96652 PWs)   bands (ev):

    -7.5356  -2.5018  -2.5018  -2.4943   0.2333   0.4804

          k =-0.2500-0.2500-0.2500 ( 96344 PWs)   bands (ev):

    -7.5355  -2.5010  -2.5010  -2.5010   0.4948   0.5916

     the Fermi energy is    -2.6106 ev

!    total energy              =      -4.37448000 Ry
     Harris-Foulkes estimate   =      -4.37447641 Ry
     estimated scf accuracy    <       0.00000052 Ry

     The total energy is the sum of the following terms:

     one-electron contribution =      -2.97287963 Ry
     hartree contribution      =       1.65131815 Ry
     xc contribution           =      -1.76103556 Ry
     ewald contribution        =      -1.27678387 Ry
     smearing contrib. (-TS)   =      -0.01509910 Ry

     convergence has been achieved in   2 iterations

     Forces acting on atoms (cartesian axes, Ry/au):

     atom    1 type  1   force =     0.00000000    0.00000000    0.00000000

     Total force =     0.000000     Total SCF correction =     0.000000

     BFGS Geometry Optimization

     bfgs converged in   1 scf cycles and   0 bfgs steps
     (criteria: energy <  1.0E-05 Ry, force <  1.0E-04 Ry/Bohr)

     End of BFGS Geometry Optimization

     Final energy   =      -4.3744800037 Ry
Begin final coordinates

ATOMIC_POSITIONS (crystal)
Al       0.500000000   0.500000000   0.500000000
End final coordinates



     Writing output data file al.save/
 
     init_run     :      4.04s CPU      4.84s WALL (       1 calls)
     electrons    :     53.41s CPU     64.06s WALL (       1 calls)
     forces       :      1.16s CPU      1.25s WALL (       1 calls)

     Called by init_run:
     wfcinit      :      2.59s CPU      3.21s WALL (       1 calls)
     potinit      :      0.65s CPU      0.73s WALL (       1 calls)
     hinit0       :      0.31s CPU      0.38s WALL (       1 calls)

     Called by electrons:
     c_bands      :     47.66s CPU     57.15s WALL (       3 calls)
     sum_band     :      4.55s CPU      5.27s WALL (       3 calls)
     v_of_rho     :      1.56s CPU      1.77s WALL (       3 calls)
     mix_rho      :      0.09s CPU      0.14s WALL (       3 calls)

     Called by c_bands:
     init_us_2    :      1.21s CPU      1.22s WALL (      80 calls)
     cegterg      :     45.18s CPU     54.61s WALL (      30 calls)

     Called by sum_band:

     Called by *egterg:
     h_psi        :     42.93s CPU     52.69s WALL (     366 calls)
     g_psi        :      0.32s CPU      0.33s WALL (     326 calls)
     cdiaghg      :      0.06s CPU      0.16s WALL (     346 calls)

     Called by h_psi:
     h_psi:pot    :     42.78s CPU     52.44s WALL (     366 calls)
     h_psi:calbec :      1.20s CPU      1.21s WALL (     366 calls)
     vloc_psi     :     40.63s CPU     50.27s WALL (     366 calls)
     add_vuspsi   :      0.95s CPU      0.96s WALL (     366 calls)

     General routines
     calbec       :      1.37s CPU      1.38s WALL (     406 calls)
     fft          :      1.51s CPU      1.76s WALL (      42 calls)
     ffts         :      0.11s CPU      0.12s WALL (       3 calls)
     fftw         :     38.83s CPU     49.05s WALL (    2500 calls)
 
     Parallel routines
     fft_scatt_xy :      5.37s CPU      7.60s WALL (    2545 calls)
     fft_scatt_yz :     14.58s CPU     16.48s WALL (    2545 calls)
 
     PWSCF        :    58.84s CPU     1m11.90s WALL

 
   This run was terminated on:  13:23:59  26Nov2020            

=------------------------------------------------------------------------------=
   JOB DONE.
=------------------------------------------------------------------------------=
