
     Program PWSCF v.6.3MaX starts on 25Nov2020 at 11:14:49 

     This program is part of the open-source Quantum ESPRESSO suite
     for quantum simulation of materials; please cite
         "P. Giannozzi et al., J. Phys.:Condens. Matter 21 395502 (2009);
         "P. Giannozzi et al., J. Phys.:Condens. Matter 29 465901 (2017);
          URL http://www.quantum-espresso.org", 
     in publications or presentations arising from this work. More details at
     http://www.quantum-espresso.org/quote

     Parallel version (MPI), running on     8 processors

     MPI processes distributed on     1 nodes
     R & G space division:  proc/nbgrp/npool/nimage =       8
     Waiting for input...
     Reading input from standard input

     Current dimensions of program PWSCF are:
     Max number of different atomic species (ntypx) = 10
     Max number of k-points (npk) =  40000
     Max angular momentum in pseudopotentials (lmaxx) =  3

     Subspace diagonalization in iterative solution of the eigenvalue problem:
     a serial algorithm will be used

     Message from routine find_sym:
     Not a group! Trying with lower acceptance parameter...
     Message from routine find_sym:
     Symmetry operations form a group
 
     Parallelization info
     --------------------
     sticks:   dense  smooth     PW     G-vecs:    dense   smooth      PW
     Min         778     778    194               112122   112122   13992
     Max         779     779    195               112130   112130   14001
     Sum        6229    6229   1555               896999   896999  111965
 


     bravais-lattice index     =            4
     lattice parameter (alat)  =      16.8405  a.u.
     unit-cell volume          =    9282.5779 (a.u.)^3
     number of atoms/cell      =            7
     number of atomic types    =            1
     number of electrons       =        21.00
     number of Kohn-Sham states=           15
     kinetic-energy cutoff     =      80.0000  Ry
     charge density cutoff     =     320.0000  Ry
     convergence threshold     =      1.0E-06
     mixing beta               =       0.4000
     number of iterations used =            8  plain     mixing
     Exchange-correlation      = PBE ( 1  4  3  4 0 0)
     nstep                     =          300


     celldm(1)=  16.840483  celldm(2)=   0.000000  celldm(3)=   2.244266
     celldm(4)=   0.000000  celldm(5)=   0.000000  celldm(6)=   0.000000

     crystal axes: (cart. coord. in units of alat)
               a(1) = (   1.000000   0.000000   0.000000 )  
               a(2) = (  -0.500000   0.866025   0.000000 )  
               a(3) = (   0.000000   0.000000   2.244266 )  

     reciprocal axes: (cart. coord. in units 2 pi/alat)
               b(1) = (  1.000000  0.577350  0.000000 )  
               b(2) = (  0.000000  1.154701  0.000000 )  
               b(3) = (  0.000000  0.000000  0.445580 )  


     PseudoPot. # 1 for Al read from file:
     ./Al.upf
     MD5 check sum: 4974d48a734c9d7d1eb6780a1419d19d
     Pseudo is Norm-conserving + core correction, Zval =  3.0
     Generated using ONCVPSP code by D. R. Hamann
     Using radial grid of 1876 points,  6 beta functions with: 
                l(1) =   0
                l(2) =   0
                l(3) =   1
                l(4) =   1
                l(5) =   2
                l(6) =   2

     atomic species   valence    mass     pseudopotential
        Al             3.00    29.98200     Al( 1.00)

      2 Sym. Ops. (no inversion) found



   Cartesian axes

     site n.     atom                  positions (alat units)
         1           Al  tau(   1) = (   0.0000001   0.2886786   0.0000000  )
         2           Al  tau(   2) = (   0.2500030   0.1443392   0.0000000  )
         3           Al  tau(   3) = (   0.5000023   0.2886806   0.0000000  )
         4           Al  tau(   4) = (   0.7500053   0.1443413   0.0000000  )
         5           Al  tau(   5) = (   0.0000036   0.5773550   0.0000000  )
         6           Al  tau(   6) = (   0.2500029   0.7216963   0.0000000  )
         7           Al  tau(   7) = (   0.5000059   0.5773570   0.0000000  )

     number of k points=     1  Methfessel-Paxton smearing, width (Ry)=  0.0500
                       cart. coord. in units 2pi/alat
        k(    1) = (   0.0000000   0.0000000   0.0000000), wk =   2.0000000

     Dense  grid:   896999 G-vectors     FFT dimensions: (  96,  96, 216)

     Estimated max dynamical RAM per process >     127.42 MB

     Estimated total dynamical RAM >    1019.39 MB

     Initial potential from superposition of free atoms

     starting charge   20.98287, renormalised to   21.00000

     negative rho (up, down):  2.280E-05 0.000E+00
     Starting wfcs are   28 randomized atomic wfcs

     total cpu time spent up to now is        4.2 secs

     Self-consistent Calculation

     iteration #  1     ecut=    80.00 Ry     beta= 0.40
     Davidson diagonalization with overlap
     ethr =  1.00E-02,  avg # of iterations =  2.0

     total cpu time spent up to now is        5.7 secs

     total energy              =     -31.66575320 Ry
     Harris-Foulkes estimate   =     -31.75243958 Ry
     estimated scf accuracy    <       0.29003514 Ry

     iteration #  2     ecut=    80.00 Ry     beta= 0.40
     Davidson diagonalization with overlap
     ethr =  1.38E-03,  avg # of iterations =  2.0

     total cpu time spent up to now is        6.7 secs

     total energy              =     -31.66519040 Ry
     Harris-Foulkes estimate   =     -31.68732475 Ry
     estimated scf accuracy    <       0.06455833 Ry

     iteration #  3     ecut=    80.00 Ry     beta= 0.40
     Davidson diagonalization with overlap
     ethr =  3.07E-04,  avg # of iterations =  2.0

     total cpu time spent up to now is        7.8 secs

     total energy              =     -31.67534609 Ry
     Harris-Foulkes estimate   =     -31.67791056 Ry
     estimated scf accuracy    <       0.00994910 Ry

     iteration #  4     ecut=    80.00 Ry     beta= 0.40
     Davidson diagonalization with overlap
     ethr =  4.74E-05,  avg # of iterations =  4.0

     total cpu time spent up to now is        9.0 secs

     total energy              =     -31.67546879 Ry
     Harris-Foulkes estimate   =     -31.67675944 Ry
     estimated scf accuracy    <       0.00288078 Ry

     iteration #  5     ecut=    80.00 Ry     beta= 0.40
     Davidson diagonalization with overlap
     ethr =  1.37E-05,  avg # of iterations =  9.0

     total cpu time spent up to now is       10.6 secs

     total energy              =     -31.67644756 Ry
     Harris-Foulkes estimate   =     -31.67758381 Ry
     estimated scf accuracy    <       0.00495285 Ry

     iteration #  6     ecut=    80.00 Ry     beta= 0.40
     Davidson diagonalization with overlap
     ethr =  1.37E-05,  avg # of iterations =  1.0

     total cpu time spent up to now is       11.6 secs

     total energy              =     -31.67632778 Ry
     Harris-Foulkes estimate   =     -31.67677666 Ry
     estimated scf accuracy    <       0.00096788 Ry

     iteration #  7     ecut=    80.00 Ry     beta= 0.40
     Davidson diagonalization with overlap
     ethr =  4.61E-06,  avg # of iterations =  3.0

     total cpu time spent up to now is       12.8 secs

     total energy              =     -31.67662287 Ry
     Harris-Foulkes estimate   =     -31.67668145 Ry
     estimated scf accuracy    <       0.00018118 Ry

     iteration #  8     ecut=    80.00 Ry     beta= 0.40
     Davidson diagonalization with overlap
     ethr =  8.63E-07,  avg # of iterations =  2.0

     total cpu time spent up to now is       13.9 secs

     total energy              =     -31.67664663 Ry
     Harris-Foulkes estimate   =     -31.67665457 Ry
     estimated scf accuracy    <       0.00002530 Ry

     iteration #  9     ecut=    80.00 Ry     beta= 0.40
     Davidson diagonalization with overlap
     ethr =  1.20E-07,  avg # of iterations =  3.0

     total cpu time spent up to now is       15.0 secs

     total energy              =     -31.67665209 Ry
     Harris-Foulkes estimate   =     -31.67665243 Ry
     estimated scf accuracy    <       0.00000132 Ry

     iteration # 10     ecut=    80.00 Ry     beta= 0.40
     Davidson diagonalization with overlap
     ethr =  6.29E-09,  avg # of iterations =  5.0

     total cpu time spent up to now is       16.3 secs

     total energy              =     -31.67665267 Ry
     Harris-Foulkes estimate   =     -31.67665297 Ry
     estimated scf accuracy    <       0.00000130 Ry

     iteration # 11     ecut=    80.00 Ry     beta= 0.40
     Davidson diagonalization with overlap
     ethr =  6.19E-09,  avg # of iterations =  1.0

     total cpu time spent up to now is       17.2 secs

     End of self-consistent calculation

          k = 0.0000 0.0000 0.0000 (111965 PWs)   bands (ev):

    -9.6456  -8.0771  -8.0770  -7.5205  -6.5560  -6.5559  -4.1829  -3.7993
    -3.2631  -2.8080  -2.8078  -2.2406  -2.2405  -1.7272  -0.8761

     the Fermi energy is    -2.6607 ev

!    total energy              =     -31.67665262 Ry
     Harris-Foulkes estimate   =     -31.67665277 Ry
     estimated scf accuracy    <       0.00000029 Ry

     The total energy is the sum of the following terms:

     one-electron contribution =    -103.79272900 Ry
     hartree contribution      =      53.99014401 Ry
     xc contribution           =     -13.76132529 Ry
     ewald contribution        =      31.90165128 Ry
     smearing contrib. (-TS)   =      -0.01439363 Ry

     convergence has been achieved in  11 iterations

     Forces acting on atoms (cartesian axes, Ry/au):

     atom    1 type  1   force =    -0.00234338   -0.00136128    0.00000000
     atom    2 type  1   force =     0.00001930   -0.01076758    0.00000000
     atom    3 type  1   force =     0.00233449   -0.00138603    0.00000000
     atom    4 type  1   force =    -0.00001030   -0.00001184    0.00000000
     atom    5 type  1   force =    -0.00928825    0.00540530    0.00000000
     atom    6 type  1   force =    -0.00002042    0.00270366    0.00000000
     atom    7 type  1   force =     0.00930855    0.00541778    0.00000000

     Total force =     0.019221     Total SCF correction =     0.000391


     Computing stress (Cartesian axis) and pressure

          total   stress  (Ry/bohr**3)                   (kbar)     P=   -1.45
  -0.00001476   0.00000001   0.00000000         -2.17      0.00      0.00
   0.00000001  -0.00001474   0.00000000          0.00     -2.17      0.00
   0.00000000   0.00000000   0.00000002          0.00      0.00      0.00


     BFGS Geometry Optimization

     number of scf cycles    =   1
     number of bfgs steps    =   0

     enthalpy new            =     -31.6766526222 Ry

     new trust radius        =       0.0107703938 bohr
     new conv_thr            =       0.0000010000 Ry

     new unit-cell volume =   9275.73418 a.u.^3 (  1374.52198 Ang^3 )
     density =      0.25355 g/cm^3

CELL_PARAMETERS (alat= 16.84048341)
   0.999630976   0.000000285   0.000000000
  -0.499815241   0.865706235   0.000000000
   0.000000000   0.000000000   2.244265901

ATOMIC_POSITIONS (angstrom)
Al      -0.001238286   2.570920085   0.000000000
Al       2.227115159   1.280124361   0.000000000
Al       4.455411542   2.570926451   0.000000000
Al       6.681275996   1.285833411   0.000000000
Al      -0.004879761   5.146120465   0.000000000
Al       2.227094441   6.430530766   0.000000000
Al       4.459134098   5.146146529   0.000000000



     Writing output data file 5al_planar_2x2_vcr.save/
     NEW-OLD atomic charge density approx. for the potential

     negative rho (up, down):  1.027E-07 0.000E+00
     extrapolated charge   20.98452, renormalised to   21.00000

     total cpu time spent up to now is       28.9 secs

     Self-consistent Calculation

     iteration #  1     ecut=    80.00 Ry     beta= 0.40
     Davidson diagonalization with overlap
     ethr =  1.00E-06,  avg # of iterations =  4.0

     negative rho (up, down):  5.100E-08 0.000E+00

     total cpu time spent up to now is       30.5 secs

     total energy              =     -31.67707082 Ry
     Harris-Foulkes estimate   =     -31.74694455 Ry
     estimated scf accuracy    <       0.00006097 Ry

     iteration #  2     ecut=    80.00 Ry     beta= 0.40
     Davidson diagonalization with overlap
     ethr =  2.90E-07,  avg # of iterations =  5.0

     negative rho (up, down):  3.953E-08 0.000E+00

     total cpu time spent up to now is       31.8 secs

     total energy              =     -31.67710575 Ry
     Harris-Foulkes estimate   =     -31.67713505 Ry
     estimated scf accuracy    <       0.00012343 Ry

     iteration #  3     ecut=    80.00 Ry     beta= 0.40
     Davidson diagonalization with overlap
     ethr =  2.90E-07,  avg # of iterations =  2.0

     negative rho (up, down):  3.664E-08 0.000E+00

     total cpu time spent up to now is       32.7 secs

     total energy              =     -31.67711469 Ry
     Harris-Foulkes estimate   =     -31.67711524 Ry
     estimated scf accuracy    <       0.00001294 Ry

     iteration #  4     ecut=    80.00 Ry     beta= 0.40
     Davidson diagonalization with overlap
     ethr =  6.16E-08,  avg # of iterations =  4.0

     negative rho (up, down):  1.817E-08 0.000E+00

     total cpu time spent up to now is       33.7 secs

     total energy              =     -31.67711305 Ry
     Harris-Foulkes estimate   =     -31.67711498 Ry
     estimated scf accuracy    <       0.00001048 Ry

     iteration #  5     ecut=    80.00 Ry     beta= 0.40
     Davidson diagonalization with overlap
     ethr =  4.99E-08,  avg # of iterations =  1.0

     total cpu time spent up to now is       34.7 secs

     total energy              =     -31.67711281 Ry
     Harris-Foulkes estimate   =     -31.67711370 Ry
     estimated scf accuracy    <       0.00000376 Ry

     iteration #  6     ecut=    80.00 Ry     beta= 0.40
     Davidson diagonalization with overlap
     ethr =  1.79E-08,  avg # of iterations =  3.0

     total cpu time spent up to now is       35.8 secs

     End of self-consistent calculation

          k = 0.0000 0.0000 0.0000 (111965 PWs)   bands (ev):

    -9.6437  -8.0715  -8.0715  -7.5174  -6.5572  -6.5571  -4.1954  -3.7977
    -3.2579  -2.8021  -2.8020  -2.2363  -2.2363  -1.7245  -0.8774

     the Fermi energy is    -2.6552 ev

!    total energy              =     -31.67711315 Ry
     Harris-Foulkes estimate   =     -31.67711353 Ry
     estimated scf accuracy    <       0.00000060 Ry

     The total energy is the sum of the following terms:

     one-electron contribution =    -103.83022979 Ry
     hartree contribution      =      54.00895832 Ry
     xc contribution           =     -13.75980038 Ry
     ewald contribution        =      31.91854740 Ry
     smearing contrib. (-TS)   =      -0.01458871 Ry

     convergence has been achieved in   6 iterations

     Forces acting on atoms (cartesian axes, Ry/au):

     atom    1 type  1   force =    -0.00155792   -0.00090678    0.00000000
     atom    2 type  1   force =    -0.00000173   -0.01026090    0.00000000
     atom    3 type  1   force =     0.00156577   -0.00091841    0.00000000
     atom    4 type  1   force =    -0.00001758   -0.00000038    0.00000000
     atom    5 type  1   force =    -0.00887681    0.00514228    0.00000000
     atom    6 type  1   force =    -0.00000917    0.00179621    0.00000000
     atom    7 type  1   force =     0.00889744    0.00514798    0.00000000

     Total force =     0.018054     Total SCF correction =     0.000679


     Computing stress (Cartesian axis) and pressure

          total   stress  (Ry/bohr**3)                   (kbar)     P=   -1.49
  -0.00001517   0.00000001   0.00000000         -2.23      0.00      0.00
   0.00000001  -0.00001519   0.00000000          0.00     -2.23      0.00
   0.00000000   0.00000000  -0.00000002          0.00      0.00     -0.00


     number of scf cycles    =   2
     number of bfgs steps    =   1

     enthalpy old            =     -31.6766526222 Ry
     enthalpy new            =     -31.6771131517 Ry

     CASE: enthalpy_new < enthalpy_old


     WARNING: bfgs curvature condition failed, Theta= 0.837
     new trust radius        =       0.0161496356 bohr
     new conv_thr            =       0.0000004605 Ry

     new unit-cell volume =   9265.06086 a.u.^3 (  1372.94035 Ang^3 )
     density =      0.25384 g/cm^3

CELL_PARAMETERS (alat= 16.84048341)
   0.999055615   0.000000706   0.000000000
  -0.499527196   0.865207872   0.000000000
   0.000000000   0.000000000   2.244265901

ATOMIC_POSITIONS (angstrom)
Al      -0.002806051   2.568528176   0.000000000
Al       2.225840556   1.270856532   0.000000000
Al       4.454417671   2.568521899   0.000000000
Al       6.677419511   1.285091580   0.000000000
Al      -0.012245612   5.147438661   0.000000000
Al       2.225803496   6.428641742   0.000000000
Al       4.463957180   5.147473864   0.000000000



     Writing output data file 5al_planar_2x2_vcr.save/
     NEW-OLD atomic charge density approx. for the potential

     negative rho (up, down):  1.642E-07 0.000E+00
     extrapolated charge   20.97583, renormalised to   21.00000

     total cpu time spent up to now is       46.8 secs

     Self-consistent Calculation

     iteration #  1     ecut=    80.00 Ry     beta= 0.40
     Davidson diagonalization with overlap
     ethr =  1.00E-06,  avg # of iterations =  4.0

     negative rho (up, down):  8.294E-08 0.000E+00

     total cpu time spent up to now is       48.4 secs

     total energy              =     -31.67766232 Ry
     Harris-Foulkes estimate   =     -31.78687183 Ry
     estimated scf accuracy    <       0.00016116 Ry

     iteration #  2     ecut=    80.00 Ry     beta= 0.40
     Davidson diagonalization with overlap
     ethr =  7.67E-07,  avg # of iterations =  3.0

     negative rho (up, down):  6.476E-08 0.000E+00

     total cpu time spent up to now is       49.7 secs

     total energy              =     -31.67774799 Ry
     Harris-Foulkes estimate   =     -31.67782640 Ry
     estimated scf accuracy    <       0.00032925 Ry

     iteration #  3     ecut=    80.00 Ry     beta= 0.40
     Davidson diagonalization with overlap
     ethr =  7.67E-07,  avg # of iterations =  2.0

     negative rho (up, down):  5.652E-08 0.000E+00

     total cpu time spent up to now is       50.8 secs

     total energy              =     -31.67777195 Ry
     Harris-Foulkes estimate   =     -31.67777408 Ry
     estimated scf accuracy    <       0.00003031 Ry

     iteration #  4     ecut=    80.00 Ry     beta= 0.40
     Davidson diagonalization with overlap
     ethr =  1.44E-07,  avg # of iterations =  1.0

     total cpu time spent up to now is       51.7 secs

     total energy              =     -31.67776557 Ry
     Harris-Foulkes estimate   =     -31.67777263 Ry
     estimated scf accuracy    <       0.00002133 Ry

     iteration #  5     ecut=    80.00 Ry     beta= 0.40
     Davidson diagonalization with overlap
     ethr =  1.02E-07,  avg # of iterations =  2.0

     total cpu time spent up to now is       52.8 secs

     total energy              =     -31.67776992 Ry
     Harris-Foulkes estimate   =     -31.67777028 Ry
     estimated scf accuracy    <       0.00000269 Ry

     iteration #  6     ecut=    80.00 Ry     beta= 0.40
     Davidson diagonalization with overlap
     ethr =  1.28E-08,  avg # of iterations =  4.0

     total cpu time spent up to now is       53.9 secs

     total energy              =     -31.67777010 Ry
     Harris-Foulkes estimate   =     -31.67777029 Ry
     estimated scf accuracy    <       0.00000193 Ry

     iteration #  7     ecut=    80.00 Ry     beta= 0.40
     Davidson diagonalization with overlap
     ethr =  9.20E-09,  avg # of iterations =  1.0

     total cpu time spent up to now is       54.8 secs

     total energy              =     -31.67776946 Ry
     Harris-Foulkes estimate   =     -31.67777013 Ry
     estimated scf accuracy    <       0.00000151 Ry

     iteration #  8     ecut=    80.00 Ry     beta= 0.40
     Davidson diagonalization with overlap
     ethr =  7.17E-09,  avg # of iterations =  2.0

     total cpu time spent up to now is       55.8 secs

     End of self-consistent calculation

          k = 0.0000 0.0000 0.0000 (111965 PWs)   bands (ev):

    -9.6416  -8.0638  -8.0637  -7.5132  -6.5601  -6.5601  -4.2167  -3.7960
    -3.2508  -2.7938  -2.7937  -2.2304  -2.2303  -1.7214  -0.8802

     the Fermi energy is    -2.6475 ev

!    total energy              =     -31.67776972 Ry
     Harris-Foulkes estimate   =     -31.67776985 Ry
     estimated scf accuracy    <       0.00000018 Ry

     The total energy is the sum of the following terms:

     one-electron contribution =    -103.89302697 Ry
     hartree contribution      =      54.04145593 Ry
     xc contribution           =     -13.75794128 Ry
     ewald contribution        =      31.94662269 Ry
     smearing contrib. (-TS)   =      -0.01488010 Ry

     convergence has been achieved in   8 iterations

     Forces acting on atoms (cartesian axes, Ry/au):

     atom    1 type  1   force =    -0.00058453   -0.00034616    0.00000000
     atom    2 type  1   force =     0.00000923   -0.00949308    0.00000000
     atom    3 type  1   force =     0.00058291   -0.00034495    0.00000000
     atom    4 type  1   force =    -0.00000938   -0.00000091    0.00000000
     atom    5 type  1   force =    -0.00821695    0.00476426    0.00000000
     atom    6 type  1   force =    -0.00000537    0.00066939    0.00000000
     atom    7 type  1   force =     0.00822409    0.00475144    0.00000000

     Total force =     0.016490     Total SCF correction =     0.000254


     Computing stress (Cartesian axis) and pressure

          total   stress  (Ry/bohr**3)                   (kbar)     P=   -1.55
  -0.00001580   0.00000001   0.00000000         -2.32      0.00      0.00
   0.00000001  -0.00001580   0.00000000          0.00     -2.32      0.00
   0.00000000   0.00000000   0.00000009          0.00      0.00      0.01


     number of scf cycles    =   3
     number of bfgs steps    =   2

     enthalpy old            =     -31.6771131517 Ry
     enthalpy new            =     -31.6777697209 Ry

     CASE: enthalpy_new < enthalpy_old

     new trust radius        =       0.0242105202 bohr
     new conv_thr            =       0.0000006566 Ry

     new unit-cell volume =   9247.91361 a.u.^3 (  1370.39939 Ang^3 )
     density =      0.25431 g/cm^3

CELL_PARAMETERS (alat= 16.84048341)
   0.998130395   0.000001258   0.000000000
  -0.499064108   0.864406841   0.000000000
   0.000000000   0.000000000   2.244265901

ATOMIC_POSITIONS (angstrom)
Al      -0.004531161   2.565141649   0.000000000
Al       2.223799542   1.256884844   0.000000000
Al       4.452015039   2.565124643   0.000000000
Al       6.671224880   1.283897742   0.000000000
Al      -0.023288302   5.149098800   0.000000000
Al       2.223729873   6.424684494   0.000000000
Al       4.470898495   5.149133706   0.000000000



     Writing output data file 5al_planar_2x2_vcr.save/
     NEW-OLD atomic charge density approx. for the potential

     negative rho (up, down):  2.568E-07 0.000E+00
     extrapolated charge   20.96109, renormalised to   21.00000

     total cpu time spent up to now is       66.8 secs

     Self-consistent Calculation

     iteration #  1     ecut=    80.00 Ry     beta= 0.40
     Davidson diagonalization with overlap
     ethr =  1.00E-06,  avg # of iterations =  4.0

     negative rho (up, down):  1.321E-07 0.000E+00

     total cpu time spent up to now is       68.5 secs

     total energy              =     -31.67849204 Ry
     Harris-Foulkes estimate   =     -31.85446268 Ry
     estimated scf accuracy    <       0.00025730 Ry

     iteration #  2     ecut=    80.00 Ry     beta= 0.40
     Davidson diagonalization with overlap
     ethr =  1.23E-06,  avg # of iterations =  5.0

     negative rho (up, down):  1.049E-07 0.000E+00

     total cpu time spent up to now is       69.8 secs

     total energy              =     -31.67866831 Ry
     Harris-Foulkes estimate   =     -31.67880426 Ry
     estimated scf accuracy    <       0.00060551 Ry

     iteration #  3     ecut=    80.00 Ry     beta= 0.40
     Davidson diagonalization with overlap
     ethr =  1.23E-06,  avg # of iterations =  2.0

     negative rho (up, down):  8.842E-08 0.000E+00

     total cpu time spent up to now is       70.8 secs

     total energy              =     -31.67870366 Ry
     Harris-Foulkes estimate   =     -31.67871066 Ry
     estimated scf accuracy    <       0.00007851 Ry

     iteration #  4     ecut=    80.00 Ry     beta= 0.40
     Davidson diagonalization with overlap
     ethr =  3.74E-07,  avg # of iterations =  3.0

     negative rho (up, down):  1.767E-08 0.000E+00

     total cpu time spent up to now is       71.8 secs

     total energy              =     -31.67868791 Ry
     Harris-Foulkes estimate   =     -31.67870535 Ry
     estimated scf accuracy    <       0.00005144 Ry

     iteration #  5     ecut=    80.00 Ry     beta= 0.40
     Davidson diagonalization with overlap
     ethr =  2.45E-07,  avg # of iterations =  3.0

     total cpu time spent up to now is       72.8 secs

     total energy              =     -31.67869911 Ry
     Harris-Foulkes estimate   =     -31.67869952 Ry
     estimated scf accuracy    <       0.00000672 Ry

     iteration #  6     ecut=    80.00 Ry     beta= 0.40
     Davidson diagonalization with overlap
     ethr =  3.20E-08,  avg # of iterations =  5.0

     total cpu time spent up to now is       73.8 secs

     total energy              =     -31.67869876 Ry
     Harris-Foulkes estimate   =     -31.67869987 Ry
     estimated scf accuracy    <       0.00000541 Ry

     iteration #  7     ecut=    80.00 Ry     beta= 0.40
     Davidson diagonalization with overlap
     ethr =  2.58E-08,  avg # of iterations =  1.0

     total cpu time spent up to now is       74.7 secs

     total energy              =     -31.67869770 Ry
     Harris-Foulkes estimate   =     -31.67869893 Ry
     estimated scf accuracy    <       0.00000297 Ry

     iteration #  8     ecut=    80.00 Ry     beta= 0.40
     Davidson diagonalization with overlap
     ethr =  1.41E-08,  avg # of iterations =  3.0

     total cpu time spent up to now is       75.8 secs

     End of self-consistent calculation

          k = 0.0000 0.0000 0.0000 (111965 PWs)   bands (ev):

    -9.6386  -8.0524  -8.0522  -7.5065  -6.5633  -6.5632  -4.2473  -3.7935
    -3.2394  -2.7802  -2.7801  -2.2214  -2.2213  -1.7164  -0.8831

     the Fermi energy is    -2.6351 ev

!    total energy              =     -31.67869808 Ry
     Harris-Foulkes estimate   =     -31.67869854 Ry
     estimated scf accuracy    <       0.00000055 Ry

     The total energy is the sum of the following terms:

     one-electron contribution =    -103.99976824 Ry
     hartree contribution      =      54.09561457 Ry
     xc contribution           =     -13.75516546 Ry
     ewald contribution        =      31.99598657 Ry
     smearing contrib. (-TS)   =      -0.01536553 Ry

     convergence has been achieved in   8 iterations

     Forces acting on atoms (cartesian axes, Ry/au):

     atom    1 type  1   force =     0.00077177    0.00043789    0.00000000
     atom    2 type  1   force =     0.00000329   -0.00846532    0.00000000
     atom    3 type  1   force =    -0.00077987    0.00043551    0.00000000
     atom    4 type  1   force =     0.00000192    0.00000412    0.00000000
     atom    5 type  1   force =    -0.00733382    0.00424340    0.00000000
     atom    6 type  1   force =    -0.00001240   -0.00089313    0.00000000
     atom    7 type  1   force =     0.00734911    0.00423753    0.00000000

     Total force =     0.014758     Total SCF correction =     0.000629


     Computing stress (Cartesian axis) and pressure

          total   stress  (Ry/bohr**3)                   (kbar)     P=   -1.63
  -0.00001663   0.00000001   0.00000000         -2.45      0.00      0.00
   0.00000001  -0.00001665   0.00000000          0.00     -2.45      0.00
   0.00000000   0.00000000   0.00000008          0.00      0.00      0.01


     number of scf cycles    =   4
     number of bfgs steps    =   3

     enthalpy old            =     -31.6777697209 Ry
     enthalpy new            =     -31.6786980850 Ry

     CASE: enthalpy_new < enthalpy_old

     new trust radius        =       0.0362821713 bohr
     new conv_thr            =       0.0000008465 Ry

     new unit-cell volume =   9220.73262 a.u.^3 (  1366.37158 Ang^3 )
     density =      0.25506 g/cm^3

CELL_PARAMETERS (alat= 16.84048341)
   0.996662194   0.000002173   0.000000000
  -0.498329215   0.863135393   0.000000000
   0.000000000   0.000000000   2.244265901

ATOMIC_POSITIONS (angstrom)
Al      -0.006243956   2.560359568   0.000000000
Al       2.220555435   1.235882705   0.000000000
Al       4.447173077   2.560321947   0.000000000
Al       6.661403838   1.282006922   0.000000000
Al      -0.039803505   5.151140294   0.000000000
Al       2.220433884   6.417222817   0.000000000
Al       4.480912607   5.151182070   0.000000000



     Writing output data file 5al_planar_2x2_vcr.save/
     NEW-OLD atomic charge density approx. for the potential

     negative rho (up, down):  4.171E-07 0.000E+00
     extrapolated charge   20.93815, renormalised to   21.00000

     total cpu time spent up to now is       86.9 secs

     Self-consistent Calculation

     iteration #  1     ecut=    80.00 Ry     beta= 0.40
     Davidson diagonalization with overlap
     ethr =  1.00E-06,  avg # of iterations =  5.0

     negative rho (up, down):  2.198E-07 0.000E+00

     total cpu time spent up to now is       88.7 secs

     total energy              =     -31.67953070 Ry
     Harris-Foulkes estimate   =     -31.95987365 Ry
     estimated scf accuracy    <       0.00053026 Ry

     iteration #  2     ecut=    80.00 Ry     beta= 0.40
     Davidson diagonalization with overlap
     ethr =  2.53E-06,  avg # of iterations =  5.0

     negative rho (up, down):  1.767E-07 0.000E+00

     total cpu time spent up to now is       89.9 secs

     total energy              =     -31.67992837 Ry
     Harris-Foulkes estimate   =     -31.68022493 Ry
     estimated scf accuracy    <       0.00136041 Ry

     iteration #  3     ecut=    80.00 Ry     beta= 0.40
     Davidson diagonalization with overlap
     ethr =  2.53E-06,  avg # of iterations =  2.0

     negative rho (up, down):  1.460E-07 0.000E+00

     total cpu time spent up to now is       90.9 secs

     total energy              =     -31.67999787 Ry
     Harris-Foulkes estimate   =     -31.68001725 Ry
     estimated scf accuracy    <       0.00019601 Ry

     iteration #  4     ecut=    80.00 Ry     beta= 0.40
     Davidson diagonalization with overlap
     ethr =  9.33E-07,  avg # of iterations =  1.0

     negative rho (up, down):  1.572E-08 0.000E+00

     total cpu time spent up to now is       91.8 secs

     total energy              =     -31.67995539 Ry
     Harris-Foulkes estimate   =     -31.68000196 Ry
     estimated scf accuracy    <       0.00012183 Ry

     iteration #  5     ecut=    80.00 Ry     beta= 0.40
     Davidson diagonalization with overlap
     ethr =  5.80E-07,  avg # of iterations =  5.0

     negative rho (up, down):  1.222E-08 0.000E+00

     total cpu time spent up to now is       93.0 secs

     total energy              =     -31.67999270 Ry
     Harris-Foulkes estimate   =     -31.67999396 Ry
     estimated scf accuracy    <       0.00002541 Ry

     iteration #  6     ecut=    80.00 Ry     beta= 0.40
     Davidson diagonalization with overlap
     ethr =  1.21E-07,  avg # of iterations =  1.0

     negative rho (up, down):  1.223E-08 0.000E+00

     total cpu time spent up to now is       93.9 secs

     total energy              =     -31.67999330 Ry
     Harris-Foulkes estimate   =     -31.67999328 Ry
     estimated scf accuracy    <       0.00002292 Ry

     iteration #  7     ecut=    80.00 Ry     beta= 0.40
     Davidson diagonalization with overlap
     ethr =  1.09E-07,  avg # of iterations =  1.0

     negative rho (up, down):  1.343E-08 0.000E+00

     total cpu time spent up to now is       94.9 secs

     total energy              =     -31.67999085 Ry
     Harris-Foulkes estimate   =     -31.67999344 Ry
     estimated scf accuracy    <       0.00002289 Ry

     iteration #  8     ecut=    80.00 Ry     beta= 0.40
     Davidson diagonalization with overlap
     ethr =  1.09E-07,  avg # of iterations =  1.0

     total cpu time spent up to now is       95.9 secs

     total energy              =     -31.67998552 Ry
     Harris-Foulkes estimate   =     -31.67999108 Ry
     estimated scf accuracy    <       0.00001591 Ry

     iteration #  9     ecut=    80.00 Ry     beta= 0.40
     Davidson diagonalization with overlap
     ethr =  7.58E-08,  avg # of iterations =  2.0

     total cpu time spent up to now is       97.1 secs

     total energy              =     -31.67998673 Ry
     Harris-Foulkes estimate   =     -31.67998729 Ry
     estimated scf accuracy    <       0.00000411 Ry

     iteration # 10     ecut=    80.00 Ry     beta= 0.40
     Davidson diagonalization with overlap
     ethr =  1.96E-08,  avg # of iterations =  5.0

     total cpu time spent up to now is       98.4 secs

     total energy              =     -31.67998692 Ry
     Harris-Foulkes estimate   =     -31.67998723 Ry
     estimated scf accuracy    <       0.00000267 Ry

     iteration # 11     ecut=    80.00 Ry     beta= 0.40
     Davidson diagonalization with overlap
     ethr =  1.27E-08,  avg # of iterations =  1.0

     total cpu time spent up to now is       99.5 secs

     total energy              =     -31.67998710 Ry
     Harris-Foulkes estimate   =     -31.67998711 Ry
     estimated scf accuracy    <       0.00000110 Ry

     iteration # 12     ecut=    80.00 Ry     beta= 0.40
     Davidson diagonalization with overlap
     ethr =  5.25E-09,  avg # of iterations =  1.0

     total cpu time spent up to now is      100.6 secs

     End of self-consistent calculation

          k = 0.0000 0.0000 0.0000 (111965 PWs)   bands (ev):

    -9.6336  -8.0347  -8.0344  -7.4952  -6.5663  -6.5661  -4.2924  -3.7893
    -3.2206  -2.7577  -2.7574  -2.2073  -2.2071  -1.7079  -0.8856

     the Fermi energy is    -2.6151 ev

!    total energy              =     -31.67998689 Ry
     Harris-Foulkes estimate   =     -31.67998713 Ry
     estimated scf accuracy    <       0.00000079 Ry

     The total energy is the sum of the following terms:

     one-electron contribution =    -104.17828950 Ry
     hartree contribution      =      54.18543530 Ry
     xc contribution           =     -13.75121955 Ry
     ewald contribution        =      32.08025006 Ry
     smearing contrib. (-TS)   =      -0.01616321 Ry

     convergence has been achieved in  12 iterations

     Forces acting on atoms (cartesian axes, Ry/au):

     atom    1 type  1   force =     0.00261665    0.00149836    0.00000000
     atom    2 type  1   force =    -0.00001742   -0.00701799    0.00000000
     atom    3 type  1   force =    -0.00261770    0.00150637    0.00000000
     atom    4 type  1   force =     0.00001722    0.00002893    0.00000000
     atom    5 type  1   force =    -0.00610734    0.00349422    0.00000000
     atom    6 type  1   force =    -0.00000391   -0.00301421    0.00000000
     atom    7 type  1   force =     0.00611251    0.00350431    0.00000000

     Total force =     0.013255     Total SCF correction =     0.000551


     Computing stress (Cartesian axis) and pressure

          total   stress  (Ry/bohr**3)                   (kbar)     P=   -1.75
  -0.00001779   0.00000002   0.00000000         -2.62      0.00      0.00
   0.00000002  -0.00001782   0.00000000          0.00     -2.62      0.00
   0.00000000   0.00000000   0.00000000          0.00      0.00      0.00


     number of scf cycles    =   5
     number of bfgs steps    =   4

     enthalpy old            =     -31.6786980850 Ry
     enthalpy new            =     -31.6799868947 Ry

     CASE: enthalpy_new < enthalpy_old

     new trust radius        =       0.0543432544 bohr
     new conv_thr            =       0.0000007018 Ry

     new unit-cell volume =   9177.87050 a.u.^3 (  1360.02007 Ang^3 )
     density =      0.25625 g/cm^3

CELL_PARAMETERS (alat= 16.84048341)
   0.994342908   0.000003899   0.000000000
  -0.497168077   0.861126173   0.000000000
   0.000000000   0.000000000   2.244265901

ATOMIC_POSITIONS (angstrom)
Al      -0.007595388   2.553581880   0.000000000
Al       2.215413760   1.204352211   0.000000000
Al       4.438178166   2.553520429   0.000000000
Al       6.645901843   1.279040629   0.000000000
Al      -0.064485677   5.153516845   0.000000000
Al       2.215236352   6.403876778   0.000000000
Al       4.495319795   5.153585495   0.000000000



     Writing output data file 5al_planar_2x2_vcr.save/
     NEW-OLD atomic charge density approx. for the potential

     negative rho (up, down):  8.820E-07 0.000E+00
     extrapolated charge   20.90201, renormalised to   21.00000

     total cpu time spent up to now is      112.0 secs

     Self-consistent Calculation

     iteration #  1     ecut=    80.00 Ry     beta= 0.40
     Davidson diagonalization with overlap
     ethr =  1.00E-06,  avg # of iterations =  7.0

     negative rho (up, down):  4.781E-07 0.000E+00

     total cpu time spent up to now is      113.8 secs

     total energy              =     -31.68064488 Ry
     Harris-Foulkes estimate   =     -32.12636065 Ry
     estimated scf accuracy    <       0.00123736 Ry

     iteration #  2     ecut=    80.00 Ry     beta= 0.40
     Davidson diagonalization with overlap
     ethr =  5.89E-06,  avg # of iterations =  4.0

     negative rho (up, down):  3.892E-07 0.000E+00

     total cpu time spent up to now is      115.0 secs

     total energy              =     -31.68158995 Ry
     Harris-Foulkes estimate   =     -31.68232728 Ry
     estimated scf accuracy    <       0.00345357 Ry

     iteration #  3     ecut=    80.00 Ry     beta= 0.40
     Davidson diagonalization with overlap
     ethr =  5.89E-06,  avg # of iterations =  2.0

     negative rho (up, down):  3.218E-07 0.000E+00

     total cpu time spent up to now is      116.0 secs

     total energy              =     -31.68175878 Ry
     Harris-Foulkes estimate   =     -31.68180722 Ry
     estimated scf accuracy    <       0.00049576 Ry

     iteration #  4     ecut=    80.00 Ry     beta= 0.40
     Davidson diagonalization with overlap
     ethr =  2.36E-06,  avg # of iterations =  1.0

     negative rho (up, down):  6.595E-08 0.000E+00

     total cpu time spent up to now is      117.0 secs

     total energy              =     -31.68166821 Ry
     Harris-Foulkes estimate   =     -31.68176876 Ry
     estimated scf accuracy    <       0.00030009 Ry

     iteration #  5     ecut=    80.00 Ry     beta= 0.40
     Davidson diagonalization with overlap
     ethr =  1.43E-06,  avg # of iterations =  3.0

     negative rho (up, down):  3.938E-08 0.000E+00

     total cpu time spent up to now is      118.2 secs

     total energy              =     -31.68173529 Ry
     Harris-Foulkes estimate   =     -31.68173772 Ry
     estimated scf accuracy    <       0.00002960 Ry

     iteration #  6     ecut=    80.00 Ry     beta= 0.40
     Davidson diagonalization with overlap
     ethr =  1.41E-07,  avg # of iterations =  4.0

     negative rho (up, down):  2.936E-08 0.000E+00

     total cpu time spent up to now is      119.5 secs

     total energy              =     -31.68173256 Ry
     Harris-Foulkes estimate   =     -31.68173874 Ry
     estimated scf accuracy    <       0.00002462 Ry

     iteration #  7     ecut=    80.00 Ry     beta= 0.40
     Davidson diagonalization with overlap
     ethr =  1.17E-07,  avg # of iterations =  2.0

     total cpu time spent up to now is      120.7 secs

     total energy              =     -31.68173115 Ry
     Harris-Foulkes estimate   =     -31.68173372 Ry
     estimated scf accuracy    <       0.00000892 Ry

     iteration #  8     ecut=    80.00 Ry     beta= 0.40
     Davidson diagonalization with overlap
     ethr =  4.25E-08,  avg # of iterations =  3.0

     total cpu time spent up to now is      122.1 secs

     total energy              =     -31.68173301 Ry
     Harris-Foulkes estimate   =     -31.68173304 Ry
     estimated scf accuracy    <       0.00000118 Ry

     iteration #  9     ecut=    80.00 Ry     beta= 0.40
     Davidson diagonalization with overlap
     ethr =  5.61E-09,  avg # of iterations =  3.0

     total cpu time spent up to now is      123.4 secs

     total energy              =     -31.68173300 Ry
     Harris-Foulkes estimate   =     -31.68173319 Ry
     estimated scf accuracy    <       0.00000172 Ry

     iteration # 10     ecut=    80.00 Ry     beta= 0.40
     Davidson diagonalization with overlap
     ethr =  5.61E-09,  avg # of iterations =  1.0

     total cpu time spent up to now is      124.4 secs

     total energy              =     -31.68173260 Ry
     Harris-Foulkes estimate   =     -31.68173303 Ry
     estimated scf accuracy    <       0.00000108 Ry

     iteration # 11     ecut=    80.00 Ry     beta= 0.40
     Davidson diagonalization with overlap
     ethr =  5.14E-09,  avg # of iterations =  2.0

     total cpu time spent up to now is      125.3 secs

     End of self-consistent calculation

          k = 0.0000 0.0000 0.0000 (111965 PWs)   bands (ev):

    -9.6312  -8.0133  -8.0128  -7.4823  -6.5742  -6.5738  -4.3670  -3.7866
    -3.1959  -2.7269  -2.7268  -2.1895  -2.1892  -1.6982  -0.8911

     the Fermi energy is    -2.5884 ev

!    total energy              =     -31.68173269 Ry
     Harris-Foulkes estimate   =     -31.68173274 Ry
     estimated scf accuracy    <       0.00000006 Ry

     The total energy is the sum of the following terms:

     one-electron contribution =    -104.47759042 Ry
     hartree contribution      =      54.33635202 Ry
     xc contribution           =     -13.74606991 Ry
     ewald contribution        =      32.22287124 Ry
     smearing contrib. (-TS)   =      -0.01729562 Ry

     convergence has been achieved in  11 iterations

     Forces acting on atoms (cartesian axes, Ry/au):

     atom    1 type  1   force =     0.00498393    0.00288179    0.00000000
     atom    2 type  1   force =    -0.00000672   -0.00504047    0.00000000
     atom    3 type  1   force =    -0.00497456    0.00289619    0.00000000
     atom    4 type  1   force =     0.00000352   -0.00000073    0.00000000
     atom    5 type  1   force =    -0.00438522    0.00251576    0.00000000
     atom    6 type  1   force =     0.00000327   -0.00574611    0.00000000
     atom    7 type  1   force =     0.00437577    0.00249358    0.00000000

     Total force =     0.013252     Total SCF correction =     0.000161


     Computing stress (Cartesian axis) and pressure

          total   stress  (Ry/bohr**3)                   (kbar)     P=   -1.91
  -0.00001944   0.00000002   0.00000000         -2.86      0.00      0.00
   0.00000002  -0.00001950   0.00000000          0.00     -2.87      0.00
   0.00000000   0.00000000   0.00000002          0.00      0.00      0.00


     number of scf cycles    =   6
     number of bfgs steps    =   5

     enthalpy old            =     -31.6799868947 Ry
     enthalpy new            =     -31.6817326872 Ry

     CASE: enthalpy_new < enthalpy_old

     new trust radius        =       0.0813253199 bohr
     new conv_thr            =       0.0000005746 Ry

     new unit-cell volume =   9110.45611 a.u.^3 (  1350.03029 Ang^3 )
     density =      0.25815 g/cm^3

CELL_PARAMETERS (alat= 16.84048341)
   0.990684459   0.000006664   0.000000000
  -0.495336458   0.857956188   0.000000000
   0.000000000   0.000000000   2.244265901

ATOMIC_POSITIONS (angstrom)
Al      -0.007954139   2.543927642   0.000000000
Al       2.207311807   1.157071618   0.000000000
Al       4.422226769   2.543832895   0.000000000
Al       6.621436200   1.274334619   0.000000000
Al      -0.101281868   5.156041557   0.000000000
Al       2.207044650   6.380774558   0.000000000
Al       4.515896336   5.156127550   0.000000000



     Writing output data file 5al_planar_2x2_vcr.save/
     NEW-OLD atomic charge density approx. for the potential

     negative rho (up, down):  2.591E-06 0.000E+00
     extrapolated charge   20.84473, renormalised to   21.00000

     total cpu time spent up to now is      137.5 secs

     Self-consistent Calculation

     iteration #  1     ecut=    80.00 Ry     beta= 0.40
     Davidson diagonalization with overlap
     ethr =  1.00E-06,  avg # of iterations =  7.0

     negative rho (up, down):  1.453E-06 0.000E+00

     total cpu time spent up to now is      139.8 secs

     total energy              =     -31.68134579 Ry
     Harris-Foulkes estimate   =     -32.39173605 Ry
     estimated scf accuracy    <       0.00302649 Ry

     iteration #  2     ecut=    80.00 Ry     beta= 0.40
     Davidson diagonalization with overlap
     ethr =  1.44E-05,  avg # of iterations =  5.0

     negative rho (up, down):  1.196E-06 0.000E+00

     total cpu time spent up to now is      141.4 secs

     total energy              =     -31.68362336 Ry
     Harris-Foulkes estimate   =     -31.68552188 Ry
     estimated scf accuracy    <       0.00905536 Ry

     iteration #  3     ecut=    80.00 Ry     beta= 0.40
     Davidson diagonalization with overlap
     ethr =  1.44E-05,  avg # of iterations =  2.0

     negative rho (up, down):  9.860E-07 0.000E+00

     total cpu time spent up to now is      142.4 secs

     total energy              =     -31.68407316 Ry
     Harris-Foulkes estimate   =     -31.68419649 Ry
     estimated scf accuracy    <       0.00124231 Ry

     iteration #  4     ecut=    80.00 Ry     beta= 0.40
     Davidson diagonalization with overlap
     ethr =  5.92E-06,  avg # of iterations =  1.0

     negative rho (up, down):  1.416E-07 0.000E+00

     total cpu time spent up to now is      143.4 secs

     total energy              =     -31.68383716 Ry
     Harris-Foulkes estimate   =     -31.68409686 Ry
     estimated scf accuracy    <       0.00073024 Ry

     iteration #  5     ecut=    80.00 Ry     beta= 0.40
     Davidson diagonalization with overlap
     ethr =  3.48E-06,  avg # of iterations =  4.0

     negative rho (up, down):  1.384E-07 0.000E+00

     total cpu time spent up to now is      144.6 secs

     total energy              =     -31.68402824 Ry
     Harris-Foulkes estimate   =     -31.68403206 Ry
     estimated scf accuracy    <       0.00010245 Ry

     iteration #  6     ecut=    80.00 Ry     beta= 0.40
     Davidson diagonalization with overlap
     ethr =  4.88E-07,  avg # of iterations =  3.0

     negative rho (up, down):  1.307E-07 0.000E+00

     total cpu time spent up to now is      145.6 secs

     total energy              =     -31.68403129 Ry
     Harris-Foulkes estimate   =     -31.68403555 Ry
     estimated scf accuracy    <       0.00009779 Ry

     iteration #  7     ecut=    80.00 Ry     beta= 0.40
     Davidson diagonalization with overlap
     ethr =  4.66E-07,  avg # of iterations =  1.0

     negative rho (up, down):  2.907E-08 0.000E+00

     total cpu time spent up to now is      146.5 secs

     total energy              =     -31.68400403 Ry
     Harris-Foulkes estimate   =     -31.68403188 Ry
     estimated scf accuracy    <       0.00008717 Ry

     iteration #  8     ecut=    80.00 Ry     beta= 0.40
     Davidson diagonalization with overlap
     ethr =  4.15E-07,  avg # of iterations =  2.0

     negative rho (up, down):  1.106E-08 0.000E+00

     total cpu time spent up to now is      147.5 secs

     total energy              =     -31.68400874 Ry
     Harris-Foulkes estimate   =     -31.68401524 Ry
     estimated scf accuracy    <       0.00003130 Ry

     iteration #  9     ecut=    80.00 Ry     beta= 0.40
     Davidson diagonalization with overlap
     ethr =  1.49E-07,  avg # of iterations =  4.0

     total cpu time spent up to now is      148.6 secs

     total energy              =     -31.68400939 Ry
     Harris-Foulkes estimate   =     -31.68401404 Ry
     estimated scf accuracy    <       0.00002548 Ry

     iteration # 10     ecut=    80.00 Ry     beta= 0.40
     Davidson diagonalization with overlap
     ethr =  1.21E-07,  avg # of iterations =  1.0

     total cpu time spent up to now is      149.7 secs

     total energy              =     -31.68400763 Ry
     Harris-Foulkes estimate   =     -31.68401026 Ry
     estimated scf accuracy    <       0.00000872 Ry

     iteration # 11     ecut=    80.00 Ry     beta= 0.40
     Davidson diagonalization with overlap
     ethr =  4.15E-08,  avg # of iterations =  4.0

     total cpu time spent up to now is      150.9 secs

     End of self-consistent calculation

          k = 0.0000 0.0000 0.0000 (111965 PWs)   bands (ev):

    -9.6294  -7.9807  -7.9800  -7.4644  -6.5843  -6.5836  -4.4799  -3.7836
    -3.1552  -2.6797  -2.6794  -2.1617  -2.1612  -1.6855  -0.8970

     the Fermi energy is    -2.5474 ev

!    total energy              =     -31.68400913 Ry
     Harris-Foulkes estimate   =     -31.68400927 Ry
     estimated scf accuracy    <       0.00000034 Ry

     The total energy is the sum of the following terms:

     one-electron contribution =    -104.97925270 Ry
     hartree contribution      =      54.58907257 Ry
     xc contribution           =     -13.73943326 Ry
     ewald contribution        =      32.46455300 Ry
     smearing contrib. (-TS)   =      -0.01894874 Ry

     convergence has been achieved in  11 iterations

     Forces acting on atoms (cartesian axes, Ry/au):

     atom    1 type  1   force =     0.00802031    0.00464106    0.00000000
     atom    2 type  1   force =    -0.00001727   -0.00234803    0.00000000
     atom    3 type  1   force =    -0.00803972    0.00467240    0.00000000
     atom    4 type  1   force =     0.00004051   -0.00000176    0.00000000
     atom    5 type  1   force =    -0.00206247    0.00115067    0.00000000
     atom    6 type  1   force =     0.00000926   -0.00925862    0.00000000
     atom    7 type  1   force =     0.00204938    0.00114430    0.00000000

     Total force =     0.016573     Total SCF correction =     0.000261


     Computing stress (Cartesian axis) and pressure

          total   stress  (Ry/bohr**3)                   (kbar)     P=   -2.14
  -0.00002175   0.00000004   0.00000000         -3.20      0.01      0.00
   0.00000004  -0.00002185   0.00000000          0.01     -3.21      0.00
   0.00000000   0.00000000   0.00000003          0.00      0.00      0.00


     number of scf cycles    =   7
     number of bfgs steps    =   6

     enthalpy old            =     -31.6817326872 Ry
     enthalpy new            =     -31.6840091314 Ry

     CASE: enthalpy_new < enthalpy_old

     new trust radius        =       0.1215394397 bohr
     new conv_thr            =       0.0000009259 Ry

     new unit-cell volume =   9004.66318 a.u.^3 (  1334.35340 Ang^3 )
     density =      0.26118 g/cm^3

CELL_PARAMETERS (alat= 16.84048341)
   0.984916694   0.000011793   0.000000000
  -0.492448134   0.852956729   0.000000000
   0.000000000   0.000000000   2.244265901

ATOMIC_POSITIONS (angstrom)
Al      -0.006071711   2.530122912   0.000000000
Al       2.194528921   1.086437809   0.000000000
Al       4.394610974   2.529992840   0.000000000
Al       6.582896583   1.266915157   0.000000000
Al      -0.155911410   5.158041387   0.000000000
Al       2.194141641   6.341513932   0.000000000
Al       4.544958864   5.158174763   0.000000000



     Writing output data file 5al_planar_2x2_vcr.save/
     NEW-OLD atomic charge density approx. for the potential

     negative rho (up, down):  7.086E-06 0.000E+00
     extrapolated charge   20.75348, renormalised to   21.00000

     total cpu time spent up to now is      162.1 secs

     Self-consistent Calculation

     iteration #  1     ecut=    80.00 Ry     beta= 0.40
     Davidson diagonalization with overlap
     ethr =  1.00E-06,  avg # of iterations =  8.0

     negative rho (up, down):  4.122E-06 0.000E+00

     total cpu time spent up to now is      164.2 secs

     total energy              =     -31.68050872 Ry
     Harris-Foulkes estimate   =     -32.81905523 Ry
     estimated scf accuracy    <       0.00689777 Ry

     iteration #  2     ecut=    80.00 Ry     beta= 0.40
     Davidson diagonalization with overlap
     ethr =  3.28E-05,  avg # of iterations =  5.0

     negative rho (up, down):  3.426E-06 0.000E+00

     total cpu time spent up to now is      165.5 secs

     total energy              =     -31.68588274 Ry
     Harris-Foulkes estimate   =     -31.69054230 Ry
     estimated scf accuracy    <       0.02293836 Ry

     iteration #  3     ecut=    80.00 Ry     beta= 0.40
     Davidson diagonalization with overlap
     ethr =  3.28E-05,  avg # of iterations =  2.0

     negative rho (up, down):  2.797E-06 0.000E+00

     total cpu time spent up to now is      166.6 secs

     total energy              =     -31.68689571 Ry
     Harris-Foulkes estimate   =     -31.68723307 Ry
     estimated scf accuracy    <       0.00328229 Ry

     iteration #  4     ecut=    80.00 Ry     beta= 0.40
     Davidson diagonalization with overlap
     ethr =  1.56E-05,  avg # of iterations =  1.0

     negative rho (up, down):  6.439E-07 0.000E+00

     total cpu time spent up to now is      167.8 secs

     total energy              =     -31.68637627 Ry
     Harris-Foulkes estimate   =     -31.68696669 Ry
     estimated scf accuracy    <       0.00184044 Ry

     iteration #  5     ecut=    80.00 Ry     beta= 0.40
     Davidson diagonalization with overlap
     ethr =  8.76E-06,  avg # of iterations =  4.0

     negative rho (up, down):  6.060E-07 0.000E+00

     total cpu time spent up to now is      169.2 secs

     total energy              =     -31.68680608 Ry
     Harris-Foulkes estimate   =     -31.68681360 Ry
     estimated scf accuracy    <       0.00014330 Ry

     iteration #  6     ecut=    80.00 Ry     beta= 0.40
     Davidson diagonalization with overlap
     ethr =  6.82E-07,  avg # of iterations =  3.0

     negative rho (up, down):  6.326E-07 0.000E+00

     total cpu time spent up to now is      170.5 secs

     total energy              =     -31.68681798 Ry
     Harris-Foulkes estimate   =     -31.68683570 Ry
     estimated scf accuracy    <       0.00016185 Ry

     iteration #  7     ecut=    80.00 Ry     beta= 0.40
     Davidson diagonalization with overlap
     ethr =  6.82E-07,  avg # of iterations =  1.0

     negative rho (up, down):  7.859E-08 0.000E+00

     total cpu time spent up to now is      171.5 secs

     total energy              =     -31.68675088 Ry
     Harris-Foulkes estimate   =     -31.68682073 Ry
     estimated scf accuracy    <       0.00011462 Ry

     iteration #  8     ecut=    80.00 Ry     beta= 0.40
     Davidson diagonalization with overlap
     ethr =  5.46E-07,  avg # of iterations =  5.0

     negative rho (up, down):  1.347E-08 0.000E+00

     total cpu time spent up to now is      173.0 secs

     total energy              =     -31.68680499 Ry
     Harris-Foulkes estimate   =     -31.68682851 Ry
     estimated scf accuracy    <       0.00016364 Ry

     iteration #  9     ecut=    80.00 Ry     beta= 0.40
     Davidson diagonalization with overlap
     ethr =  5.46E-07,  avg # of iterations =  1.0

     negative rho (up, down):  2.989E-08 0.000E+00

     total cpu time spent up to now is      174.3 secs

     total energy              =     -31.68678577 Ry
     Harris-Foulkes estimate   =     -31.68680897 Ry
     estimated scf accuracy    <       0.00007442 Ry

     iteration # 10     ecut=    80.00 Ry     beta= 0.40
     Davidson diagonalization with overlap
     ethr =  3.54E-07,  avg # of iterations =  4.0

     negative rho (up, down):  2.597E-08 0.000E+00

     total cpu time spent up to now is      175.8 secs

     total energy              =     -31.68679934 Ry
     Harris-Foulkes estimate   =     -31.68679840 Ry
     estimated scf accuracy    <       0.00000469 Ry

     iteration # 11     ecut=    80.00 Ry     beta= 0.40
     Davidson diagonalization with overlap
     ethr =  2.23E-08,  avg # of iterations =  5.0

     total cpu time spent up to now is      177.6 secs

     total energy              =     -31.68679586 Ry
     Harris-Foulkes estimate   =     -31.68680271 Ry
     estimated scf accuracy    <       0.00001535 Ry

     iteration # 12     ecut=    80.00 Ry     beta= 0.40
     Davidson diagonalization with overlap
     ethr =  2.23E-08,  avg # of iterations =  5.0

     total cpu time spent up to now is      178.9 secs

     End of self-consistent calculation

          k = 0.0000 0.0000 0.0000 (111965 PWs)   bands (ev):

    -9.6312  -7.9332  -7.9322  -7.4429  -6.5986  -6.5976  -4.6586  -3.7826
    -3.0888  -2.6088  -2.6086  -2.1201  -2.1194  -1.6718  -0.9036

     the Fermi energy is    -2.4862 ev

!    total energy              =     -31.68679860 Ry
     Harris-Foulkes estimate   =     -31.68679890 Ry
     estimated scf accuracy    <       0.00000076 Ry

     The total energy is the sum of the following terms:

     one-electron contribution =    -105.82487570 Ry
     hartree contribution      =      55.01309758 Ry
     xc contribution           =     -13.73100415 Ry
     ewald contribution        =      32.87746735 Ry
     smearing contrib. (-TS)   =      -0.02148368 Ry

     convergence has been achieved in  12 iterations

     Forces acting on atoms (cartesian axes, Ry/au):

     atom    1 type  1   force =     0.01191757    0.00688817    0.00000000
     atom    2 type  1   force =    -0.00001120    0.00145424    0.00000000
     atom    3 type  1   force =    -0.01191978    0.00693967    0.00000000
     atom    4 type  1   force =     0.00001435    0.00001687    0.00000000
     atom    5 type  1   force =     0.00125004   -0.00075274    0.00000000
     atom    6 type  1   force =     0.00002295   -0.01376579    0.00000000
     atom    7 type  1   force =    -0.00127392   -0.00078041    0.00000000

     Total force =     0.023994     Total SCF correction =     0.000432


     Computing stress (Cartesian axis) and pressure

          total   stress  (Ry/bohr**3)                   (kbar)     P=   -2.47
  -0.00002513   0.00000005   0.00000000         -3.70      0.01      0.00
   0.00000005  -0.00002525   0.00000000          0.01     -3.71      0.00
   0.00000000   0.00000000  -0.00000005          0.00      0.00     -0.01


     number of scf cycles    =   8
     number of bfgs steps    =   7

     enthalpy old            =     -31.6840091314 Ry
     enthalpy new            =     -31.6867986021 Ry

     CASE: enthalpy_new < enthalpy_old

     new trust radius        =       0.1812484813 bohr
     new conv_thr            =       0.0000010000 Ry

     new unit-cell volume =   8837.61074 a.u.^3 (  1309.59878 Ang^3 )
     density =      0.26612 g/cm^3

CELL_PARAMETERS (alat= 16.84048341)
   0.975740251   0.000020644   0.000000000
  -0.487852248   0.845001288   0.000000000
   0.000000000   0.000000000   2.244265901

ATOMIC_POSITIONS (angstrom)
Al       0.000747531   2.510365609   0.000000000
Al       2.174193664   0.981326546   0.000000000
Al       4.346872027   2.510202825   0.000000000
Al       6.521556882   1.255128953   0.000000000
Al      -0.236509984   5.157575126   0.000000000
Al       2.173635093   6.274624011   0.000000000
Al       4.584875310   5.157772220   0.000000000



     Writing output data file 5al_planar_2x2_vcr.save/
     NEW-OLD atomic charge density approx. for the potential

     negative rho (up, down):  1.304E-05 0.000E+00
     extrapolated charge   20.60337, renormalised to   21.00000

     total cpu time spent up to now is      190.2 secs

     Self-consistent Calculation

     iteration #  1     ecut=    80.00 Ry     beta= 0.40
     Davidson diagonalization with overlap
     ethr =  1.00E-06,  avg # of iterations =  9.0

     negative rho (up, down):  7.800E-06 0.000E+00

     total cpu time spent up to now is      192.6 secs

     total energy              =     -31.67436521 Ry
     Harris-Foulkes estimate   =     -33.53560443 Ry
     estimated scf accuracy    <       0.01699783 Ry

     iteration #  2     ecut=    80.00 Ry     beta= 0.40
     Davidson diagonalization with overlap
     ethr =  8.09E-05,  avg # of iterations =  5.0

     negative rho (up, down):  6.502E-06 0.000E+00

     total cpu time spent up to now is      194.0 secs

     total energy              =     -31.68745226 Ry
     Harris-Foulkes estimate   =     -31.69937473 Ry
     estimated scf accuracy    <       0.05961465 Ry

     iteration #  3     ecut=    80.00 Ry     beta= 0.40
     Davidson diagonalization with overlap
     ethr =  8.09E-05,  avg # of iterations =  2.0

     negative rho (up, down):  5.299E-06 0.000E+00

     total cpu time spent up to now is      195.2 secs

     total energy              =     -31.69008887 Ry
     Harris-Foulkes estimate   =     -31.69095211 Ry
     estimated scf accuracy    <       0.00829574 Ry

     iteration #  4     ecut=    80.00 Ry     beta= 0.40
     Davidson diagonalization with overlap
     ethr =  3.95E-05,  avg # of iterations =  1.0

     negative rho (up, down):  1.493E-06 0.000E+00

     total cpu time spent up to now is      196.2 secs

     total energy              =     -31.68891564 Ry
     Harris-Foulkes estimate   =     -31.69028128 Ry
     estimated scf accuracy    <       0.00455839 Ry

     iteration #  5     ecut=    80.00 Ry     beta= 0.40
     Davidson diagonalization with overlap
     ethr =  2.17E-05,  avg # of iterations =  4.0

     negative rho (up, down):  1.422E-06 0.000E+00

     total cpu time spent up to now is      197.4 secs

     total energy              =     -31.68993318 Ry
     Harris-Foulkes estimate   =     -31.68995512 Ry
     estimated scf accuracy    <       0.00032394 Ry

     iteration #  6     ecut=    80.00 Ry     beta= 0.40
     Davidson diagonalization with overlap
     ethr =  1.54E-06,  avg # of iterations =  3.0

     negative rho (up, down):  1.435E-06 0.000E+00

     total cpu time spent up to now is      198.5 secs

     total energy              =     -31.68996353 Ry
     Harris-Foulkes estimate   =     -31.69000790 Ry
     estimated scf accuracy    <       0.00035231 Ry

     iteration #  7     ecut=    80.00 Ry     beta= 0.40
     Davidson diagonalization with overlap
     ethr =  1.54E-06,  avg # of iterations =  1.0

     negative rho (up, down):  4.276E-08 0.000E+00

     total cpu time spent up to now is      199.4 secs

     total energy              =     -31.68982843 Ry
     Harris-Foulkes estimate   =     -31.68997201 Ry
     estimated scf accuracy    <       0.00023683 Ry

     iteration #  8     ecut=    80.00 Ry     beta= 0.40
     Davidson diagonalization with overlap
     ethr =  1.13E-06,  avg # of iterations =  5.0

     negative rho (up, down):  4.002E-08 0.000E+00

     total cpu time spent up to now is      200.7 secs

     total energy              =     -31.68991487 Ry
     Harris-Foulkes estimate   =     -31.69003826 Ry
     estimated scf accuracy    <       0.00051854 Ry

     iteration #  9     ecut=    80.00 Ry     beta= 0.40
     Davidson diagonalization with overlap
     ethr =  1.13E-06,  avg # of iterations =  3.0

     negative rho (up, down):  3.319E-08 0.000E+00

     total cpu time spent up to now is      201.7 secs

     total energy              =     -31.68991251 Ry
     Harris-Foulkes estimate   =     -31.68994528 Ry
     estimated scf accuracy    <       0.00009724 Ry

     iteration # 10     ecut=    80.00 Ry     beta= 0.40
     Davidson diagonalization with overlap
     ethr =  4.63E-07,  avg # of iterations =  4.0

     negative rho (up, down):  2.228E-08 0.000E+00

     total cpu time spent up to now is      202.8 secs

     total energy              =     -31.68993492 Ry
     Harris-Foulkes estimate   =     -31.68993677 Ry
     estimated scf accuracy    <       0.00001383 Ry

     iteration # 11     ecut=    80.00 Ry     beta= 0.40
     Davidson diagonalization with overlap
     ethr =  6.59E-08,  avg # of iterations =  2.0

     total cpu time spent up to now is      203.9 secs

     total energy              =     -31.68993358 Ry
     Harris-Foulkes estimate   =     -31.68993598 Ry
     estimated scf accuracy    <       0.00000538 Ry

     iteration # 12     ecut=    80.00 Ry     beta= 0.40
     Davidson diagonalization with overlap
     ethr =  2.56E-08,  avg # of iterations =  4.0

     total cpu time spent up to now is      205.3 secs

     total energy              =     -31.68993551 Ry
     Harris-Foulkes estimate   =     -31.68993525 Ry
     estimated scf accuracy    <       0.00000125 Ry

     iteration # 13     ecut=    80.00 Ry     beta= 0.40
     Davidson diagonalization with overlap
     ethr =  5.97E-09,  avg # of iterations =  4.0

     total cpu time spent up to now is      206.5 secs

     total energy              =     -31.68993506 Ry
     Harris-Foulkes estimate   =     -31.68993562 Ry
     estimated scf accuracy    <       0.00000192 Ry

     iteration # 14     ecut=    80.00 Ry     beta= 0.40
     Davidson diagonalization with overlap
     ethr =  5.97E-09,  avg # of iterations =  4.0

     total cpu time spent up to now is      207.7 secs

     End of self-consistent calculation

          k = 0.0000 0.0000 0.0000 (111965 PWs)   bands (ev):

    -9.6453  -7.8629  -7.8614  -7.4294  -6.6178  -6.6164  -4.9356  -3.7896
    -2.9743  -2.5079  -2.5076  -2.0562  -2.0552  -1.6668  -0.9081

     the Fermi energy is    -2.3976 ev

!    total energy              =     -31.68993532 Ry
     Harris-Foulkes estimate   =     -31.68993533 Ry
     estimated scf accuracy    <       0.00000003 Ry

     The total energy is the sum of the following terms:

     one-electron contribution =    -107.29864969 Ry
     hartree contribution      =      55.75514238 Ry
     xc contribution           =     -13.72360658 Ry
     ewald contribution        =      33.60265082 Ry
     smearing contrib. (-TS)   =      -0.02547225 Ry

     convergence has been achieved in  14 iterations

     Forces acting on atoms (cartesian axes, Ry/au):

     atom    1 type  1   force =     0.01643726    0.00947329    0.00000000
     atom    2 type  1   force =     0.00000927    0.00662013    0.00000000
     atom    3 type  1   force =    -0.01648015    0.00950693    0.00000000
     atom    4 type  1   force =     0.00004511    0.00004459    0.00000000
     atom    5 type  1   force =     0.00573045   -0.00329666    0.00000000
     atom    6 type  1   force =    -0.00001386   -0.01900608    0.00000000
     atom    7 type  1   force =    -0.00572809   -0.00334219    0.00000000

     Total force =     0.034852     Total SCF correction =     0.000100


     Computing stress (Cartesian axis) and pressure

          total   stress  (Ry/bohr**3)                   (kbar)     P=   -2.93
  -0.00002979   0.00000007   0.00000000         -4.38      0.01      0.00
   0.00000007  -0.00002996   0.00000000          0.01     -4.41      0.00
   0.00000000   0.00000000   0.00000001          0.00      0.00      0.00


     number of scf cycles    =   9
     number of bfgs steps    =   8

     enthalpy old            =     -31.6867986021 Ry
     enthalpy new            =     -31.6899353168 Ry

     CASE: enthalpy_new < enthalpy_old

     new trust radius        =       0.2693415178 bohr
     new conv_thr            =       0.0000010000 Ry

     new unit-cell volume =   8586.31429 a.u.^3 (  1272.36049 Ang^3 )
     density =      0.27390 g/cm^3

CELL_PARAMETERS (alat= 16.84048341)
   0.961772935   0.000035597   0.000000000
  -0.480855640   0.832888714   0.000000000
   0.000000000   0.000000000   2.244265901

ATOMIC_POSITIONS (angstrom)
Al       0.017322073   2.483841079   0.000000000
Al       2.143256749   0.835533376   0.000000000
Al       4.267985679   2.483623569   0.000000000
Al       6.428223991   1.237225515   0.000000000
Al      -0.346875953   5.149777319   0.000000000
Al       2.142404165   6.165619382   0.000000000
Al       4.633356341   5.150063971   0.000000000



     Writing output data file 5al_planar_2x2_vcr.save/
     NEW-OLD atomic charge density approx. for the potential

     negative rho (up, down):  1.777E-05 0.000E+00
     extrapolated charge   20.38589, renormalised to   21.00000

     total cpu time spent up to now is      218.8 secs

     Self-consistent Calculation

     iteration #  1     ecut=    80.00 Ry     beta= 0.40
     Davidson diagonalization with overlap
     ethr =  1.00E-06,  avg # of iterations = 11.0

     negative rho (up, down):  1.088E-05 0.000E+00

     total cpu time spent up to now is      221.3 secs

     total energy              =     -31.66075379 Ry
     Harris-Foulkes estimate   =     -34.61402713 Ry
     estimated scf accuracy    <       0.03337070 Ry

     iteration #  2     ecut=    80.00 Ry     beta= 0.40
     Davidson diagonalization with overlap
     ethr =  1.59E-04,  avg # of iterations =  4.0

     negative rho (up, down):  9.168E-06 0.000E+00

     total cpu time spent up to now is      222.8 secs

     total energy              =     -31.68906182 Ry
     Harris-Foulkes estimate   =     -31.71165377 Ry
     estimated scf accuracy    <       0.11320531 Ry

     iteration #  3     ecut=    80.00 Ry     beta= 0.40
     Davidson diagonalization with overlap
     ethr =  1.59E-04,  avg # of iterations =  2.0

     negative rho (up, down):  7.490E-06 0.000E+00

     total cpu time spent up to now is      223.8 secs

     total energy              =     -31.69374662 Ry
     Harris-Foulkes estimate   =     -31.69554234 Ry
     estimated scf accuracy    <       0.01759116 Ry

     iteration #  4     ecut=    80.00 Ry     beta= 0.40
     Davidson diagonalization with overlap
     ethr =  8.38E-05,  avg # of iterations =  1.0

     negative rho (up, down):  3.000E-06 0.000E+00

     total cpu time spent up to now is      224.8 secs

     total energy              =     -31.69154972 Ry
     Harris-Foulkes estimate   =     -31.69414204 Ry
     estimated scf accuracy    <       0.01000453 Ry

     iteration #  5     ecut=    80.00 Ry     beta= 0.40
     Davidson diagonalization with overlap
     ethr =  4.76E-05,  avg # of iterations =  4.0

     negative rho (up, down):  2.472E-06 0.000E+00

     total cpu time spent up to now is      226.0 secs

     total energy              =     -31.69316698 Ry
     Harris-Foulkes estimate   =     -31.69327067 Ry
     estimated scf accuracy    <       0.00063818 Ry

     iteration #  6     ecut=    80.00 Ry     beta= 0.40
     Davidson diagonalization with overlap
     ethr =  3.04E-06,  avg # of iterations =  4.0

     negative rho (up, down):  1.205E-06 0.000E+00

     total cpu time spent up to now is      227.5 secs

     total energy              =     -31.69321787 Ry
     Harris-Foulkes estimate   =     -31.69330874 Ry
     estimated scf accuracy    <       0.00029556 Ry

     iteration #  7     ecut=    80.00 Ry     beta= 0.40
     Davidson diagonalization with overlap
     ethr =  1.41E-06,  avg # of iterations =  5.0

     negative rho (up, down):  1.651E-07 0.000E+00

     total cpu time spent up to now is      228.9 secs

     total energy              =     -31.69312479 Ry
     Harris-Foulkes estimate   =     -31.69336553 Ry
     estimated scf accuracy    <       0.00057247 Ry

     iteration #  8     ecut=    80.00 Ry     beta= 0.40
     Davidson diagonalization with overlap
     ethr =  1.41E-06,  avg # of iterations =  5.0

     negative rho (up, down):  5.313E-08 0.000E+00

     total cpu time spent up to now is      230.5 secs

     total energy              =     -31.69329316 Ry
     Harris-Foulkes estimate   =     -31.69331379 Ry
     estimated scf accuracy    <       0.00019556 Ry

     iteration #  9     ecut=    80.00 Ry     beta= 0.40
     Davidson diagonalization with overlap
     ethr =  9.31E-07,  avg # of iterations =  1.0

     negative rho (up, down):  2.043E-08 0.000E+00

     total cpu time spent up to now is      231.5 secs

     total energy              =     -31.69324884 Ry
     Harris-Foulkes estimate   =     -31.69329643 Ry
     estimated scf accuracy    <       0.00012643 Ry

     iteration # 10     ecut=    80.00 Ry     beta= 0.40
     Davidson diagonalization with overlap
     ethr =  6.02E-07,  avg # of iterations =  5.0

     total cpu time spent up to now is      232.7 secs

     total energy              =     -31.69327280 Ry
     Harris-Foulkes estimate   =     -31.69327416 Ry
     estimated scf accuracy    <       0.00000463 Ry

     iteration # 11     ecut=    80.00 Ry     beta= 0.40
     Davidson diagonalization with overlap
     ethr =  2.20E-08,  avg # of iterations =  3.0

     total cpu time spent up to now is      233.9 secs

     End of self-consistent calculation

          k = 0.0000 0.0000 0.0000 (111965 PWs)   bands (ev):

    -9.6882  -7.7686  -7.7662  -7.4599  -6.6441  -6.6419  -5.3368  -3.8172
    -2.7860  -2.3782  -2.3781  -1.9647  -1.9632  -1.6921  -0.9050

     the Fermi energy is    -2.2814 ev

!    total energy              =     -31.69327417 Ry
     Harris-Foulkes estimate   =     -31.69327472 Ry
     estimated scf accuracy    <       0.00000081 Ry

     The total energy is the sum of the following terms:

     one-electron contribution =    -109.80168157 Ry
     hartree contribution      =      57.01161478 Ry
     xc contribution           =     -13.72282718 Ry
     ewald contribution        =      34.85231846 Ry
     smearing contrib. (-TS)   =      -0.03269866 Ry

     convergence has been achieved in  11 iterations

     Forces acting on atoms (cartesian axes, Ry/au):

     atom    1 type  1   force =     0.02055847    0.01184640    0.00000000
     atom    2 type  1   force =     0.00007178    0.01238003    0.00000000
     atom    3 type  1   force =    -0.02059002    0.01186476    0.00000000
     atom    4 type  1   force =    -0.00000639    0.00000050    0.00000000
     atom    5 type  1   force =     0.01080802   -0.00609426    0.00000000
     atom    6 type  1   force =    -0.00002575   -0.02377955    0.00000000
     atom    7 type  1   force =    -0.01081610   -0.00621788    0.00000000

     Total force =     0.046433     Total SCF correction =     0.000608


     Computing stress (Cartesian axis) and pressure

          total   stress  (Ry/bohr**3)                   (kbar)     P=   -3.50
  -0.00003556   0.00000011   0.00000000         -5.23      0.02      0.00
   0.00000011  -0.00003584   0.00000000          0.02     -5.27      0.00
   0.00000000   0.00000000  -0.00000004          0.00      0.00     -0.01


     number of scf cycles    =  10
     number of bfgs steps    =   9

     enthalpy old            =     -31.6899353168 Ry
     enthalpy new            =     -31.6932741658 Ry

     CASE: enthalpy_new < enthalpy_old

     new trust radius        =       0.3247839396 bohr
     new conv_thr            =       0.0000010000 Ry

     new unit-cell volume =   8288.17598 a.u.^3 (  1228.18095 Ang^3 )
     density =      0.28376 g/cm^3

CELL_PARAMETERS (alat= 16.84048341)
   0.944937918   0.000056110   0.000000000
  -0.472420367   0.818281678   0.000000000
   0.000000000   0.000000000   2.244265901

ATOMIC_POSITIONS (angstrom)
Al       0.044555686   2.456034316   0.000000000
Al       2.106021361   0.679710204   0.000000000
Al       4.165666546   2.455751720   0.000000000
Al       6.315692029   1.215625676   0.000000000
Al      -0.462566922   5.130455475   0.000000000
Al       2.104769026   6.025800096   0.000000000
Al       4.674472553   5.130790800   0.000000000



     Writing output data file 5al_planar_2x2_vcr.save/
     NEW-OLD atomic charge density approx. for the potential

     negative rho (up, down):  1.537E-05 0.000E+00
     extrapolated charge   20.24521, renormalised to   21.00000

     total cpu time spent up to now is      244.9 secs

     Self-consistent Calculation

     iteration #  1     ecut=    80.00 Ry     beta= 0.40
     Davidson diagonalization with overlap
     ethr =  1.00E-06,  avg # of iterations = 12.0

     negative rho (up, down):  9.513E-06 0.000E+00

     total cpu time spent up to now is      247.6 secs

     total energy              =     -31.65361331 Ry
     Harris-Foulkes estimate   =     -35.40030143 Ry
     estimated scf accuracy    <       0.04298052 Ry

     iteration #  2     ecut=    80.00 Ry     beta= 0.40
     Davidson diagonalization with overlap
     ethr =  2.05E-04,  avg # of iterations =  4.0

     negative rho (up, down):  7.878E-06 0.000E+00

     total cpu time spent up to now is      249.1 secs

     total energy              =     -31.69457537 Ry
     Harris-Foulkes estimate   =     -31.71769894 Ry
     estimated scf accuracy    <       0.11157129 Ry

     iteration #  3     ecut=    80.00 Ry     beta= 0.40
     Davidson diagonalization with overlap
     ethr =  2.05E-04,  avg # of iterations =  2.0

     negative rho (up, down):  6.367E-06 0.000E+00

     total cpu time spent up to now is      250.1 secs

     total energy              =     -31.69909165 Ry
     Harris-Foulkes estimate   =     -31.70110451 Ry
     estimated scf accuracy    <       0.01987275 Ry

     iteration #  4     ecut=    80.00 Ry     beta= 0.40
     Davidson diagonalization with overlap
     ethr =  9.46E-05,  avg # of iterations =  1.0

     negative rho (up, down):  2.058E-06 0.000E+00

     total cpu time spent up to now is      251.0 secs

     total energy              =     -31.69586480 Ry
     Harris-Foulkes estimate   =     -31.69946402 Ry
     estimated scf accuracy    <       0.01215539 Ry

     iteration #  5     ecut=    80.00 Ry     beta= 0.40
     Davidson diagonalization with overlap
     ethr =  5.79E-05,  avg # of iterations =  4.0

     negative rho (up, down):  1.851E-06 0.000E+00

     total cpu time spent up to now is      252.2 secs

     total energy              =     -31.69774365 Ry
     Harris-Foulkes estimate   =     -31.69783010 Ry
     estimated scf accuracy    <       0.00046594 Ry

     iteration #  6     ecut=    80.00 Ry     beta= 0.40
     Davidson diagonalization with overlap
     ethr =  2.22E-06,  avg # of iterations =  4.0

     negative rho (up, down):  4.840E-07 0.000E+00

     total cpu time spent up to now is      253.4 secs

     total energy              =     -31.69782634 Ry
     Harris-Foulkes estimate   =     -31.69789304 Ry
     estimated scf accuracy    <       0.00027519 Ry

     iteration #  7     ecut=    80.00 Ry     beta= 0.40
     Davidson diagonalization with overlap
     ethr =  1.31E-06,  avg # of iterations =  4.0

     negative rho (up, down):  1.392E-07 0.000E+00

     total cpu time spent up to now is      254.4 secs

     total energy              =     -31.69781571 Ry
     Harris-Foulkes estimate   =     -31.69788552 Ry
     estimated scf accuracy    <       0.00016313 Ry

     iteration #  8     ecut=    80.00 Ry     beta= 0.40
     Davidson diagonalization with overlap
     ethr =  7.77E-07,  avg # of iterations =  5.0

     negative rho (up, down):  4.747E-08 0.000E+00

     total cpu time spent up to now is      255.5 secs

     total energy              =     -31.69786394 Ry
     Harris-Foulkes estimate   =     -31.69789136 Ry
     estimated scf accuracy    <       0.00014301 Ry

     iteration #  9     ecut=    80.00 Ry     beta= 0.40
     Davidson diagonalization with overlap
     ethr =  6.81E-07,  avg # of iterations =  1.0

     total cpu time spent up to now is      256.4 secs

     total energy              =     -31.69784625 Ry
     Harris-Foulkes estimate   =     -31.69786893 Ry
     estimated scf accuracy    <       0.00005294 Ry

     iteration # 10     ecut=    80.00 Ry     beta= 0.40
     Davidson diagonalization with overlap
     ethr =  2.52E-07,  avg # of iterations =  5.0

     total cpu time spent up to now is      257.6 secs

[...]
     estimated scf accuracy    <       0.00000033 Ry

     The total energy is the sum of the following terms:

     one-electron contribution =    -129.31966546 Ry
     hartree contribution      =      66.69804731 Ry
     xc contribution           =     -13.96339438 Ry
     ewald contribution        =      44.91991730 Ry
     smearing contrib. (-TS)   =      -0.07004948 Ry

     convergence has been achieved in   5 iterations

     Forces acting on atoms (cartesian axes, Ry/au):

     atom    1 type  1   force =    -0.00856102   -0.00571445    0.00000000
     atom    2 type  1   force =     0.00069650    0.00280059    0.00000000
     atom    3 type  1   force =     0.00808022   -0.00599944    0.00000000
     atom    4 type  1   force =     0.00000222   -0.00022127    0.00000000
     atom    5 type  1   force =     0.00256936   -0.00013512    0.00000000
     atom    6 type  1   force =    -0.00048395    0.01007793    0.00000000
     atom    7 type  1   force =    -0.00230332   -0.00080824    0.00000000

     Total force =     0.018165     Total SCF correction =     0.000119


     Computing stress (Cartesian axis) and pressure

          total   stress  (Ry/bohr**3)                   (kbar)     P=   -1.57
  -0.00001656   0.00000041   0.00000000         -2.44      0.06      0.00
   0.00000041  -0.00001580   0.00000000          0.06     -2.32      0.00
   0.00000000   0.00000000   0.00000024          0.00      0.00      0.04


     number of scf cycles    = 297
     number of bfgs steps    =  19

     enthalpy old            =     -31.7354476647 Ry
     enthalpy new            =     -31.7351446986 Ry

     CASE: enthalpy_new > enthalpy_old

     new trust radius        =       0.0025918090 bohr
     new conv_thr            =       0.0000009208 Ry

     new unit-cell volume =   7211.22731 a.u.^3 (  1068.59362 Ang^3 )
     density =      0.32613 g/cm^3

CELL_PARAMETERS (alat= 16.84048341)
   0.881506978   0.000268416   0.000000000
  -0.440521032   0.763078335   0.000000000
   0.000000000   0.000000000   2.244265901

ATOMIC_POSITIONS (angstrom)
Al       0.284178633   2.432932844   0.000000000
Al       1.961447601   0.475758893   0.000000000
Al       3.646135297   2.434928119   0.000000000
Al       5.892865402   1.136336486   0.000000000
Al      -0.571091841   4.858513758   0.000000000
Al       1.966661680   5.341430468   0.000000000
Al       4.501729083   4.863658988   0.000000000



     Writing output data file 5al_planar_2x2_vcr.save/
     NEW-OLD atomic charge density approx. for the potential

     negative rho (up, down):  2.826E-07 0.000E+00
     extrapolated charge   21.01297, renormalised to   21.00000

     total cpu time spent up to now is     5281.3 secs

     Self-consistent Calculation

     iteration #  1     ecut=    80.00 Ry     beta= 0.40
     Davidson diagonalization with overlap
     ethr =  1.00E-06,  avg # of iterations =  4.0

     negative rho (up, down):  1.462E-07 0.000E+00

     total cpu time spent up to now is     5282.8 secs

     total energy              =     -31.73480946 Ry
     Harris-Foulkes estimate   =     -31.66090288 Ry
     estimated scf accuracy    <       0.00006706 Ry

     iteration #  2     ecut=    80.00 Ry     beta= 0.40
     Davidson diagonalization with overlap
     ethr =  3.19E-07,  avg # of iterations =  2.0

     negative rho (up, down):  1.049E-07 0.000E+00

     total cpu time spent up to now is     5284.0 secs

     total energy              =     -31.73484787 Ry
     Harris-Foulkes estimate   =     -31.73485866 Ry
     estimated scf accuracy    <       0.00004103 Ry

     iteration #  3     ecut=    80.00 Ry     beta= 0.40
     Davidson diagonalization with overlap
     ethr =  1.95E-07,  avg # of iterations =  1.0

     negative rho (up, down):  8.405E-08 0.000E+00

     total cpu time spent up to now is     5284.9 secs

     total energy              =     -31.73484993 Ry
     Harris-Foulkes estimate   =     -31.73485082 Ry
     estimated scf accuracy    <       0.00000633 Ry

     iteration #  4     ecut=    80.00 Ry     beta= 0.40
     Davidson diagonalization with overlap
     ethr =  3.01E-08,  avg # of iterations =  1.0

     negative rho (up, down):  1.741E-08 0.000E+00

     total cpu time spent up to now is     5285.8 secs

     total energy              =     -31.73484877 Ry
     Harris-Foulkes estimate   =     -31.73485016 Ry
     estimated scf accuracy    <       0.00000326 Ry

     iteration #  5     ecut=    80.00 Ry     beta= 0.40
     Davidson diagonalization with overlap
     ethr =  1.55E-08,  avg # of iterations =  2.0

     total cpu time spent up to now is     5286.8 secs

     End of self-consistent calculation

          k = 0.0000 0.0000 0.0000 (111965 PWs)   bands (ev):

   -10.5787  -8.0217  -8.0081  -7.9265  -7.0694  -6.8515  -6.8358  -4.3199
    -2.1311  -2.0044  -2.0015  -1.8654  -1.8563  -1.7820  -0.9981

     the Fermi energy is    -2.0063 ev

!    total energy              =     -31.73484951 Ry
     Harris-Foulkes estimate   =     -31.73484960 Ry
     estimated scf accuracy    <       0.00000019 Ry

     The total energy is the sum of the following terms:

     one-electron contribution =    -129.23037902 Ry
     hartree contribution      =      66.64857063 Ry
     xc contribution           =     -13.95969938 Ry
     ewald contribution        =      44.87664389 Ry
     smearing contrib. (-TS)   =      -0.06998563 Ry

     convergence has been achieved in   5 iterations

     Forces acting on atoms (cartesian axes, Ry/au):

     atom    1 type  1   force =    -0.00923069   -0.00624257    0.00000000
     atom    2 type  1   force =     0.00074602    0.00299115    0.00000000
     atom    3 type  1   force =     0.00871954   -0.00659639    0.00000000
     atom    4 type  1   force =    -0.00001302   -0.00023658    0.00000000
     atom    5 type  1   force =     0.00270933   -0.00008088    0.00000000
     atom    6 type  1   force =    -0.00058157    0.01091893    0.00000000
     atom    7 type  1   force =    -0.00234961   -0.00075367    0.00000000

     Total force =     0.019654     Total SCF correction =     0.000078


     Computing stress (Cartesian axis) and pressure

          total   stress  (Ry/bohr**3)                   (kbar)     P=   -1.70
  -0.00001769   0.00000033   0.00000000         -2.60      0.05      0.00
   0.00000033  -0.00001688   0.00000000          0.05     -2.48      0.00
   0.00000000   0.00000000  -0.00000018          0.00      0.00     -0.03


     number of scf cycles    = 298
     number of bfgs steps    =  19

     enthalpy old            =     -31.7354476647 Ry
     enthalpy new            =     -31.7348495101 Ry

     CASE: enthalpy_new > enthalpy_old

     new trust radius        =       0.0001881987 bohr
     new conv_thr            =       0.0000009208 Ry

     new unit-cell volume =   7212.79382 a.u.^3 (  1068.82576 Ang^3 )
     density =      0.32606 g/cm^3

CELL_PARAMETERS (alat= 16.84048341)
   0.881605071   0.000266788   0.000000000
  -0.440571487   0.763160004   0.000000000
   0.000000000   0.000000000   2.244265901

ATOMIC_POSITIONS (angstrom)
Al       0.285247949   2.433920073   0.000000000
Al       1.961561107   0.475643158   0.000000000
Al       3.645562122   2.435958596   0.000000000
Al       5.893528562   1.136481614   0.000000000
Al      -0.571328449   4.858912594   0.000000000
Al       1.966949852   5.340750850   0.000000000
Al       4.502331873   4.864141784   0.000000000



     Writing output data file 5al_planar_2x2_vcr.save/
     NEW-OLD atomic charge density approx. for the potential

     negative rho (up, down):  7.337E-08 0.000E+00
     extrapolated charge   21.00456, renormalised to   21.00000

     total cpu time spent up to now is     5298.1 secs

     Self-consistent Calculation

     iteration #  1     ecut=    80.00 Ry     beta= 0.40
     Davidson diagonalization with overlap
     ethr =  1.00E-06,  avg # of iterations =  1.0

     Threshold (ethr) on eigenvalues was too large:
     Diagonalizing with lowered threshold

     Davidson diagonalization with overlap
     ethr =  1.21E-08,  avg # of iterations =  5.0

     negative rho (up, down):  3.688E-08 0.000E+00

     total cpu time spent up to now is     5300.4 secs

     total energy              =     -31.73473688 Ry
     Harris-Foulkes estimate   =     -31.70876242 Ry
     estimated scf accuracy    <       0.00000535 Ry

     iteration #  2     ecut=    80.00 Ry     beta= 0.40
     Davidson diagonalization with overlap
     ethr =  2.55E-08,  avg # of iterations =  5.0

     negative rho (up, down):  2.758E-08 0.000E+00

     total cpu time spent up to now is     5301.6 secs

     total energy              =     -31.73474047 Ry
     Harris-Foulkes estimate   =     -31.73474193 Ry
     estimated scf accuracy    <       0.00000611 Ry

     iteration #  3     ecut=    80.00 Ry     beta= 0.40
     Davidson diagonalization with overlap
     ethr =  2.55E-08,  avg # of iterations =  1.0

     negative rho (up, down):  2.315E-08 0.000E+00

     total cpu time spent up to now is     5302.5 secs

     total energy              =     -31.73474071 Ry
     Harris-Foulkes estimate   =     -31.73474084 Ry
     estimated scf accuracy    <       0.00000117 Ry

     iteration #  4     ecut=    80.00 Ry     beta= 0.40
     Davidson diagonalization with overlap
     ethr =  5.59E-09,  avg # of iterations =  1.0

     total cpu time spent up to now is     5303.4 secs

     End of self-consistent calculation

          k = 0.0000 0.0000 0.0000 (111965 PWs)   bands (ev):

   -10.5813  -8.0255  -8.0115  -7.9283  -7.0749  -6.8533  -6.8369  -4.3215
    -2.1337  -2.0077  -2.0048  -1.8679  -1.8585  -1.7836  -1.0062

     the Fermi energy is    -2.0089 ev

!    total energy              =     -31.73474025 Ry
     Harris-Foulkes estimate   =     -31.73474075 Ry
     estimated scf accuracy    <       0.00000073 Ry

     The total energy is the sum of the following terms:

     one-electron contribution =    -129.20532718 Ry
     hartree contribution      =      66.63851125 Ry
     xc contribution           =     -13.95950501 Ry
     ewald contribution        =      44.86147150 Ry
     smearing contrib. (-TS)   =      -0.06989082 Ry

     convergence has been achieved in   4 iterations

     Forces acting on atoms (cartesian axes, Ry/au):

     atom    1 type  1   force =    -0.00949168   -0.00644904    0.00000000
     atom    2 type  1   force =     0.00077106    0.00306094    0.00000000
     atom    3 type  1   force =     0.00896733   -0.00683813    0.00000000
     atom    4 type  1   force =    -0.00003103   -0.00024415    0.00000000
     atom    5 type  1   force =     0.00279572   -0.00004728    0.00000000
     atom    6 type  1   force =    -0.00061744    0.01124609    0.00000000
     atom    7 type  1   force =    -0.00239397   -0.00072844    0.00000000

     Total force =     0.020244     Total SCF correction =     0.000232


     Computing stress (Cartesian axis) and pressure

          total   stress  (Ry/bohr**3)                   (kbar)     P=   -1.71
  -0.00001810   0.00000031   0.00000000         -2.66      0.05      0.00
   0.00000031  -0.00001727   0.00000000          0.05     -2.54      0.00
   0.00000000   0.00000000   0.00000039          0.00      0.00      0.06


     number of scf cycles    = 299
     number of bfgs steps    =  19

     enthalpy old            =     -31.7354476647 Ry
     enthalpy new            =     -31.7347402496 Ry

     CASE: enthalpy_new > enthalpy_old

     new trust radius        =       0.0000009709 bohr

     trust_radius < trust_radius_min

     resetting bfgs history

     new conv_thr            =       0.0000009208 Ry

     new unit-cell volume =   7206.77059 a.u.^3 (  1067.93321 Ang^3 )
     density =      0.32633 g/cm^3

CELL_PARAMETERS (alat= 16.84048341)
   0.881227844   0.000273048   0.000000000
  -0.440377458   0.762845940   0.000000000
   0.000000000   0.000000000   2.244265901

ATOMIC_POSITIONS (angstrom)
Al       0.281137042   2.430124411   0.000000000
Al       1.961124487   0.476088040   0.000000000
Al       3.647765118   2.431996721   0.000000000
Al       5.890978325   1.135923551   0.000000000
Al      -0.570418747   4.857378701   0.000000000
Al       1.965841779   5.343362947   0.000000000
Al       4.500013921   4.862285116   0.000000000



     Writing output data file 5al_planar_2x2_vcr.save/
     NEW-OLD atomic charge density approx. for the potential

     negative rho (up, down):  4.136E-07 0.000E+00
     extrapolated charge   20.98246, renormalised to   21.00000

     total cpu time spent up to now is     5315.1 secs

     Self-consistent Calculation

     iteration #  1     ecut=    80.00 Ry     beta= 0.40
     Davidson diagonalization with overlap
     ethr =  1.00E-06,  avg # of iterations =  4.0

     negative rho (up, down):  2.186E-07 0.000E+00

     total cpu time spent up to now is     5316.6 secs

     total energy              =     -31.73508853 Ry
     Harris-Foulkes estimate   =     -31.83518750 Ry
     estimated scf accuracy    <       0.00007147 Ry

     iteration #  2     ecut=    80.00 Ry     beta= 0.40
     Davidson diagonalization with overlap
     ethr =  3.40E-07,  avg # of iterations =  2.0

     negative rho (up, down):  1.630E-07 0.000E+00

     total cpu time spent up to now is     5317.7 secs

     total energy              =     -31.73514397 Ry
     Harris-Foulkes estimate   =     -31.73515895 Ry
     estimated scf accuracy    <       0.00006407 Ry

     iteration #  3     ecut=    80.00 Ry     beta= 0.40
     Davidson diagonalization with overlap
     ethr =  3.05E-07,  avg # of iterations =  1.0

     negative rho (up, down):  1.297E-07 0.000E+00

     total cpu time spent up to now is     5318.7 secs

     total energy              =     -31.73514559 Ry
     Harris-Foulkes estimate   =     -31.73514746 Ry
     estimated scf accuracy    <       0.00001387 Ry

     iteration #  4     ecut=    80.00 Ry     beta= 0.40
     Davidson diagonalization with overlap
     ethr =  6.60E-08,  avg # of iterations =  1.0

     negative rho (up, down):  2.744E-08 0.000E+00

     total cpu time spent up to now is     5319.7 secs

     total energy              =     -31.73514319 Ry
     Harris-Foulkes estimate   =     -31.73514598 Ry
     estimated scf accuracy    <       0.00000710 Ry

     iteration #  5     ecut=    80.00 Ry     beta= 0.40
     Davidson diagonalization with overlap
     ethr =  3.38E-08,  avg # of iterations =  2.0

     total cpu time spent up to now is     5320.7 secs

     End of self-consistent calculation

          k = 0.0000 0.0000 0.0000 (111965 PWs)   bands (ev):

   -10.5806  -8.0197  -8.0080  -7.9307  -7.0631  -6.8562  -6.8426  -4.3211
    -2.1340  -2.0051  -2.0022  -1.8641  -1.8562  -1.7841  -0.9838

     the Fermi energy is    -2.0072 ev

!    total energy              =     -31.73514470 Ry
     Harris-Foulkes estimate   =     -31.73514490 Ry
     estimated scf accuracy    <       0.00000033 Ry

     The total energy is the sum of the following terms:

     one-electron contribution =    -129.31966436 Ry
     hartree contribution      =      66.69804594 Ry
     xc contribution           =     -13.96339412 Ry
     ewald contribution        =      44.91991730 Ry
     smearing contrib. (-TS)   =      -0.07004946 Ry

     convergence has been achieved in   5 iterations

     Forces acting on atoms (cartesian axes, Ry/au):

     atom    1 type  1   force =    -0.00856107   -0.00571447    0.00000000
     atom    2 type  1   force =     0.00069663    0.00280081    0.00000000
     atom    3 type  1   force =     0.00808003   -0.00599945    0.00000000
     atom    4 type  1   force =     0.00000220   -0.00022141    0.00000000
     atom    5 type  1   force =     0.00256918   -0.00013512    0.00000000
     atom    6 type  1   force =    -0.00048343    0.01007799    0.00000000
     atom    7 type  1   force =    -0.00230353   -0.00080834    0.00000000

     Total force =     0.018165     Total SCF correction =     0.000118


     Computing stress (Cartesian axis) and pressure

          total   stress  (Ry/bohr**3)                   (kbar)     P=   -1.57
  -0.00001656   0.00000041   0.00000000         -2.44      0.06      0.00
   0.00000041  -0.00001580   0.00000000          0.06     -2.32      0.00
   0.00000000   0.00000000   0.00000024          0.00      0.00      0.04


     number of scf cycles    = 300
     number of bfgs steps    =  19

     enthalpy old            =     -31.7354476647 Ry
     enthalpy new            =     -31.7351446987 Ry

     CASE: enthalpy_new > enthalpy_old

     new trust radius        =       0.0025918092 bohr
     new conv_thr            =       0.0000009208 Ry

     new unit-cell volume =   7211.22731 a.u.^3 (  1068.59362 Ang^3 )
     density =      0.32613 g/cm^3

CELL_PARAMETERS (alat= 16.84048341)
   0.881506978   0.000268416   0.000000000
  -0.440521032   0.763078335   0.000000000
   0.000000000   0.000000000   2.244265901

ATOMIC_POSITIONS (angstrom)
Al       0.284178633   2.432932844   0.000000000
Al       1.961447601   0.475758893   0.000000000
Al       3.646135297   2.434928119   0.000000000
Al       5.892865402   1.136336486   0.000000000
Al      -0.571091841   4.858513758   0.000000000
Al       1.966661680   5.341430468   0.000000000
Al       4.501729083   4.863658988   0.000000000



     Writing output data file 5al_planar_2x2_vcr.save/
     NEW-OLD atomic charge density approx. for the potential

     negative rho (up, down):  2.825E-07 0.000E+00
     extrapolated charge   21.01297, renormalised to   21.00000

     Writing output data file 5al_planar_2x2_vcr.save/
 
     init_run     :      3.55s CPU      3.80s WALL (       1 calls)
     electrons    :   1902.53s CPU   1969.88s WALL (     300 calls)
     update_pot   :   1141.57s CPU   1145.77s WALL (     300 calls)
     forces       :    653.12s CPU    656.52s WALL (     300 calls)
     stress       :   1483.44s CPU   1519.73s WALL (     300 calls)

     Called by init_run:
     wfcinit      :      0.37s CPU      0.41s WALL (       1 calls)
     potinit      :      1.22s CPU      1.29s WALL (       1 calls)
     hinit0       :      1.58s CPU      1.66s WALL (       1 calls)

     Called by electrons:
     c_bands      :   1221.66s CPU   1251.08s WALL (    1655 calls)
     sum_band     :    271.97s CPU    283.61s WALL (    1655 calls)
     v_of_rho     :    389.85s CPU    401.90s WALL (    1864 calls)
     mix_rho      :     52.33s CPU     53.36s WALL (    1655 calls)

     Called by c_bands:
     init_us_2    :     36.62s CPU     36.73s WALL (    3311 calls)
     cegterg      :    972.31s CPU    999.96s WALL (    1655 calls)

     Called by sum_band:

     Called by *egterg:
     h_psi        :    889.19s CPU    916.58s WALL (    5578 calls)
     g_psi        :      4.83s CPU      4.84s WALL (    3922 calls)
     cdiaghg      :      2.66s CPU      2.68s WALL (    5186 calls)

     Called by h_psi:
     h_psi:pot    :    885.39s CPU    912.27s WALL (    5578 calls)
     h_psi:calbec :     48.66s CPU     48.75s WALL (    5578 calls)
     vloc_psi     :    776.81s CPU    803.53s WALL (    5578 calls)
     add_vuspsi   :     59.87s CPU     59.96s WALL (    5578 calls)

     General routines
     calbec       :     65.66s CPU     65.89s WALL (    7078 calls)
     fft          :    353.23s CPU    374.29s WALL (   26534 calls)
     ffts         :     19.98s CPU     21.38s WALL (    1655 calls)
     fftw         :    814.55s CPU    846.33s WALL (  153915 calls)
 
     Parallel routines
     fft_scatt_xy :    180.50s CPU    181.26s WALL (  182104 calls)
     fft_scatt_yz :    483.86s CPU    534.77s WALL (  182104 calls)
 
     PWSCF        :     1h26m CPU       26h 1m WALL

      28h
 
   This run was terminated on:  12:43:41  25Nov2020            

=------------------------------------------------------------------------------=
   JOB DONE.
=------------------------------------------------------------------------------=
