
     Program PWSCF v.6.3MaX starts on 25Nov2020 at 21:29:34 

     This program is part of the open-source Quantum ESPRESSO suite
     for quantum simulation of materials; please cite
         "P. Giannozzi et al., J. Phys.:Condens. Matter 21 395502 (2009);
         "P. Giannozzi et al., J. Phys.:Condens. Matter 29 465901 (2017);
          URL http://www.quantum-espresso.org", 
     in publications or presentations arising from this work. More details at
     http://www.quantum-espresso.org/quote

     Parallel version (MPI), running on     8 processors

     MPI processes distributed on     5 nodes
     R & G space division:  proc/nbgrp/npool/nimage =       8
     Waiting for input...
     Reading input from standard input

     Current dimensions of program PWSCF are:
     Max number of different atomic species (ntypx) = 10
     Max number of k-points (npk) =  40000
     Max angular momentum in pseudopotentials (lmaxx) =  3

     Subspace diagonalization in iterative solution of the eigenvalue problem:
     a serial algorithm will be used

     Message from routine find_sym:
     Not a group! Trying with lower acceptance parameter...
     Message from routine find_sym:
     Symmetry operations form a group
 
     Parallelization info
     --------------------
     sticks:   dense  smooth     PW     G-vecs:    dense   smooth      PW
     Min        3123    3123    778               448599   448599   56048
     Max        3124    3124    779               448604   448604   56052
     Sum       24985   24985   6229              3588803  3588803  448403
 


     bravais-lattice index     =            4
     lattice parameter (alat)  =      33.6810  a.u.
     unit-cell volume          =   37130.3117 (a.u.)^3
     number of atoms/cell      =           31
     number of atomic types    =            1
     number of electrons       =        93.00
     number of Kohn-Sham states=           56
     kinetic-energy cutoff     =      80.0000  Ry
     charge density cutoff     =     320.0000  Ry
     convergence threshold     =      1.0E-06
     mixing beta               =       0.4000
     number of iterations used =            8  plain     mixing
     Exchange-correlation      = PBE ( 1  4  3  4 0 0)
     nstep                     =          300


     celldm(1)=  33.680967  celldm(2)=   0.000000  celldm(3)=   1.122133
     celldm(4)=   0.000000  celldm(5)=   0.000000  celldm(6)=   0.000000

     crystal axes: (cart. coord. in units of alat)
               a(1) = (   1.000000   0.000000   0.000000 )  
               a(2) = (  -0.500000   0.866025   0.000000 )  
               a(3) = (   0.000000   0.000000   1.122133 )  

     reciprocal axes: (cart. coord. in units 2 pi/alat)
               b(1) = (  1.000000  0.577350  0.000000 )  
               b(2) = (  0.000000  1.154701  0.000000 )  
               b(3) = (  0.000000  0.000000  0.891160 )  


     PseudoPot. # 1 for Al read from file:
     ./Al.upf
     MD5 check sum: 4974d48a734c9d7d1eb6780a1419d19d
     Pseudo is Norm-conserving + core correction, Zval =  3.0
     Generated using ONCVPSP code by D. R. Hamann
     Using radial grid of 1876 points,  6 beta functions with: 
                l(1) =   0
                l(2) =   0
                l(3) =   1
                l(4) =   1
                l(5) =   2
                l(6) =   2

     atomic species   valence    mass     pseudopotential
        Al             3.00    29.98200     Al( 1.00)

      2 Sym. Ops. (no inversion) found



   Cartesian axes

     site n.     atom                  positions (alat units)
         1           Al  tau(   1) = (  -0.0000000   0.1443393   0.0000000  )
         2           Al  tau(   2) = (   0.1250015   0.0721696   0.0000000  )
         3           Al  tau(   3) = (  -0.1249997   0.3608472   0.0000000  )
         4           Al  tau(   4) = (   0.0000018   0.2886775   0.0000000  )
         5           Al  tau(   5) = (  -0.2499994   0.5773550   0.0000000  )
         6           Al  tau(   6) = (  -0.1249979   0.5051854   0.0000000  )
         7           Al  tau(   7) = (  -0.3749991   0.7938629   0.0000000  )
         8           Al  tau(   8) = (  -0.2499976   0.7216932   0.0000000  )
         9           Al  tau(   9) = (   0.3750027   0.0721706   0.0000000  )
        10           Al  tau(  10) = (   0.1250014   0.3608482   0.0000000  )
        11           Al  tau(  11) = (   0.2500030   0.2886785   0.0000000  )
        12           Al  tau(  12) = (   0.0000017   0.5773560   0.0000000  )
        13           Al  tau(  13) = (   0.1250033   0.5051864   0.0000000  )
        14           Al  tau(  14) = (  -0.1249980   0.7938639   0.0000000  )
        15           Al  tau(  15) = (   0.0000036   0.7216942   0.0000000  )
        16           Al  tau(  16) = (   0.5000023   0.1443413   0.0000000  )
        17           Al  tau(  17) = (   0.6250038   0.0721717   0.0000000  )
        18           Al  tau(  18) = (   0.3750026   0.3608492   0.0000000  )
        19           Al  tau(  19) = (   0.5000041   0.2886795   0.0000000  )
        20           Al  tau(  20) = (   0.2500029   0.5773571   0.0000000  )
        21           Al  tau(  21) = (   0.3750044   0.5051874   0.0000000  )
        22           Al  tau(  22) = (   0.1250032   0.7938649   0.0000000  )
        23           Al  tau(  23) = (   0.2500047   0.7216953   0.0000000  )
        24           Al  tau(  24) = (   0.7500035   0.1443423   0.0000000  )
        25           Al  tau(  25) = (   0.8750050   0.0721727   0.0000000  )
        26           Al  tau(  26) = (   0.6250038   0.3608502   0.0000000  )
        27           Al  tau(  27) = (   0.7500053   0.2886805   0.0000000  )
        28           Al  tau(  28) = (   0.5000041   0.5773581   0.0000000  )
        29           Al  tau(  29) = (   0.6250056   0.5051884   0.0000000  )
        30           Al  tau(  30) = (   0.3750044   0.7938660   0.0000000  )
        31           Al  tau(  31) = (   0.5000059   0.7216963   0.0000000  )

     number of k points=     1  Methfessel-Paxton smearing, width (Ry)=  0.0500
                       cart. coord. in units 2pi/alat
        k(    1) = (   0.0000000   0.0000000   0.0000000), wk =   2.0000000

     Dense  grid:  3588803 G-vectors     FFT dimensions: ( 192, 192, 216)

     Estimated max dynamical RAM per process >       1.15 GB

     Estimated total dynamical RAM >       9.23 GB

     Initial potential from superposition of free atoms

     starting charge   92.92414, renormalised to   93.00000

     negative rho (up, down):  9.278E-05 0.000E+00
     Starting wfcs are  124 randomized atomic wfcs

     total cpu time spent up to now is       35.5 secs

     Self-consistent Calculation

     iteration #  1     ecut=    80.00 Ry     beta= 0.40
     Davidson diagonalization with overlap
     ethr =  1.00E-02,  avg # of iterations =  2.0

     total cpu time spent up to now is       63.0 secs

     total energy              =    -140.64202644 Ry
     Harris-Foulkes estimate   =    -141.23595657 Ry
     estimated scf accuracy    <       1.54872553 Ry

     iteration #  2     ecut=    80.00 Ry     beta= 0.40
     Davidson diagonalization with overlap
     ethr =  1.67E-03,  avg # of iterations =  5.0

     total cpu time spent up to now is       94.5 secs

     total energy              =    -140.21868530 Ry
     Harris-Foulkes estimate   =    -141.45907501 Ry
     estimated scf accuracy    <       6.75813620 Ry

     iteration #  3     ecut=    80.00 Ry     beta= 0.40
     Davidson diagonalization with overlap
     ethr =  1.67E-03,  avg # of iterations =  5.0

     total cpu time spent up to now is      124.0 secs

     total energy              =    -140.82782446 Ry
     Harris-Foulkes estimate   =    -141.02351874 Ry
     estimated scf accuracy    <       1.17440422 Ry

     iteration #  4     ecut=    80.00 Ry     beta= 0.40
     Davidson diagonalization with overlap
     ethr =  1.26E-03,  avg # of iterations =  1.0

     total cpu time spent up to now is      147.2 secs

     total energy              =    -140.90035309 Ry
     Harris-Foulkes estimate   =    -140.94425578 Ry
     estimated scf accuracy    <       0.15103209 Ry

     iteration #  5     ecut=    80.00 Ry     beta= 0.40
     Davidson diagonalization with overlap
     ethr =  1.62E-04,  avg # of iterations =  5.0

     total cpu time spent up to now is      170.6 secs

     total energy              =    -140.91317689 Ry
     Harris-Foulkes estimate   =    -140.95586495 Ry
     estimated scf accuracy    <       0.30719626 Ry

     iteration #  6     ecut=    80.00 Ry     beta= 0.40
     Davidson diagonalization with overlap
     ethr =  1.62E-04,  avg # of iterations =  3.0

     total cpu time spent up to now is      192.3 secs

     total energy              =    -140.93234430 Ry
     Harris-Foulkes estimate   =    -140.93472990 Ry
     estimated scf accuracy    <       0.01016548 Ry

     iteration #  7     ecut=    80.00 Ry     beta= 0.40
     Davidson diagonalization with overlap
     ethr =  1.09E-05,  avg # of iterations = 11.0

     total cpu time spent up to now is      230.0 secs

     total energy              =    -140.93555878 Ry
     Harris-Foulkes estimate   =    -140.93687173 Ry
     estimated scf accuracy    <       0.00676605 Ry

     iteration #  8     ecut=    80.00 Ry     beta= 0.40
     Davidson diagonalization with overlap
     ethr =  7.28E-06,  avg # of iterations =  3.0

     total cpu time spent up to now is      253.4 secs

     total energy              =    -140.93557355 Ry
     Harris-Foulkes estimate   =    -140.93670963 Ry
     estimated scf accuracy    <       0.00683786 Ry

     iteration #  9     ecut=    80.00 Ry     beta= 0.40
     Davidson diagonalization with overlap
     ethr =  7.28E-06,  avg # of iterations =  1.0

     total cpu time spent up to now is      274.3 secs

     total energy              =    -140.93588801 Ry
     Harris-Foulkes estimate   =    -140.93616197 Ry
     estimated scf accuracy    <       0.00145379 Ry

     iteration # 10     ecut=    80.00 Ry     beta= 0.40
     Davidson diagonalization with overlap
     ethr =  1.56E-06,  avg # of iterations =  5.0

     total cpu time spent up to now is      298.9 secs

     total energy              =    -140.93600419 Ry
     Harris-Foulkes estimate   =    -140.93609929 Ry
     estimated scf accuracy    <       0.00036810 Ry

     iteration # 11     ecut=    80.00 Ry     beta= 0.40
     Davidson diagonalization with overlap
     ethr =  3.96E-07,  avg # of iterations =  5.0

     total cpu time spent up to now is      327.2 secs

     total energy              =    -140.93604835 Ry
     Harris-Foulkes estimate   =    -140.93616678 Ry
     estimated scf accuracy    <       0.00078892 Ry

     iteration # 12     ecut=    80.00 Ry     beta= 0.40
     Davidson diagonalization with overlap
     ethr =  3.96E-07,  avg # of iterations =  3.0

     total cpu time spent up to now is      350.2 secs

     total energy              =    -140.93610134 Ry
     Harris-Foulkes estimate   =    -140.93611094 Ry
     estimated scf accuracy    <       0.00004425 Ry

     iteration # 13     ecut=    80.00 Ry     beta= 0.40
     Davidson diagonalization with overlap
     ethr =  4.76E-08,  avg # of iterations =  5.0

     total cpu time spent up to now is      378.4 secs

     total energy              =    -140.93611083 Ry
     Harris-Foulkes estimate   =    -140.93611541 Ry
     estimated scf accuracy    <       0.00002337 Ry

     iteration # 14     ecut=    80.00 Ry     beta= 0.40
     Davidson diagonalization with overlap
     ethr =  2.51E-08,  avg # of iterations =  3.0

     total cpu time spent up to now is      402.0 secs

     total energy              =    -140.93611130 Ry
     Harris-Foulkes estimate   =    -140.93611375 Ry
     estimated scf accuracy    <       0.00001341 Ry

     iteration # 15     ecut=    80.00 Ry     beta= 0.40
     Davidson diagonalization with overlap
     ethr =  1.44E-08,  avg # of iterations =  3.0

     total cpu time spent up to now is      425.8 secs

     total energy              =    -140.93611127 Ry
     Harris-Foulkes estimate   =    -140.93611389 Ry
     estimated scf accuracy    <       0.00001686 Ry

     iteration # 16     ecut=    80.00 Ry     beta= 0.40
     Davidson diagonalization with overlap
     ethr =  1.44E-08,  avg # of iterations =  3.0

     total cpu time spent up to now is      447.3 secs

     total energy              =    -140.93611219 Ry
     Harris-Foulkes estimate   =    -140.93611288 Ry
     estimated scf accuracy    <       0.00000364 Ry

     iteration # 17     ecut=    80.00 Ry     beta= 0.40
     Davidson diagonalization with overlap
     ethr =  3.92E-09,  avg # of iterations =  4.0

     total cpu time spent up to now is      469.6 secs

     total energy              =    -140.93611221 Ry
     Harris-Foulkes estimate   =    -140.93611267 Ry
     estimated scf accuracy    <       0.00000167 Ry

     iteration # 18     ecut=    80.00 Ry     beta= 0.40
     Davidson diagonalization with overlap
     ethr =  1.80E-09,  avg # of iterations =  4.0

     total cpu time spent up to now is      492.8 secs

     total energy              =    -140.93611216 Ry
     Harris-Foulkes estimate   =    -140.93611269 Ry
     estimated scf accuracy    <       0.00000355 Ry

     iteration # 19     ecut=    80.00 Ry     beta= 0.40
     Davidson diagonalization with overlap
     ethr =  1.80E-09,  avg # of iterations =  3.0

     total cpu time spent up to now is      511.8 secs

     End of self-consistent calculation

          k = 0.0000 0.0000 0.0000 (448403 PWs)   bands (ev):

    -9.9529  -9.4484  -9.4329  -9.4329  -9.4258  -9.4258  -9.1458  -8.4048
    -8.4047  -8.3881  -8.3880  -8.3797  -8.3033  -8.2570  -8.2569  -7.5864
    -6.9324  -6.9323  -6.8233  -6.4865  -6.4772  -6.4772  -6.3701  -6.3700
    -5.4639  -4.8435  -4.8433  -4.8369  -4.7356  -4.7355  -4.4780  -4.4680
    -4.4428  -4.4428  -4.1224  -4.1223  -3.9779  -3.4712  -3.4687  -3.4686
    -3.4576  -3.4575  -3.4017  -3.2744  -3.2743  -3.2223  -3.2073  -2.9743
    -2.9653  -2.9652  -2.9389  -2.5198  -2.5196  -2.4491  -2.4486  -2.4314

     the Fermi energy is    -3.0910 ev

!    total energy              =    -140.93611219 Ry
     Harris-Foulkes estimate   =    -140.93611234 Ry
     estimated scf accuracy    <       0.00000016 Ry

     The total energy is the sum of the following terms:

     one-electron contribution =    -502.03642519 Ry
     hartree contribution      =     259.76349729 Ry
     xc contribution           =     -61.33576539 Ry
     ewald contribution        =     162.75357038 Ry
     smearing contrib. (-TS)   =      -0.08098928 Ry

     convergence has been achieved in  19 iterations

     Forces acting on atoms (cartesian axes, Ry/au):

     atom    1 type  1   force =    -0.00252988    0.00222744    0.00000000
     atom    2 type  1   force =     0.01311778    0.00759820    0.00000000
     atom    3 type  1   force =    -0.00107255    0.00067607    0.00000000
     atom    4 type  1   force =     0.00111031   -0.00065310    0.00000000
     atom    5 type  1   force =     0.00002774   -0.00126693    0.00000000
     atom    6 type  1   force =     0.00046155    0.00025576    0.00000000
     atom    7 type  1   force =     0.00064772   -0.00332361    0.00000000
     atom    8 type  1   force =    -0.00000151    0.00127128    0.00000000
     atom    9 type  1   force =    -0.01309033    0.00760854    0.00000000
     atom   10 type  1   force =    -0.00317176    0.00112272    0.00000000
     atom   11 type  1   force =    -0.00000064   -0.01513276    0.00000000
     atom   12 type  1   force =     0.00202216    0.00113681    0.00000000
     atom   13 type  1   force =    -0.00158907   -0.00519253    0.00000000
     atom   14 type  1   force =    -0.00059721   -0.00334511    0.00000000
     atom   15 type  1   force =    -0.00530398    0.00124953    0.00000000
     atom   16 type  1   force =     0.00253149    0.00220019    0.00000000
     atom   17 type  1   force =    -0.00369811    0.00398710    0.00000000
     atom   18 type  1   force =     0.00316775    0.00111329    0.00000000
     atom   19 type  1   force =    -0.00112308   -0.00066554    0.00000000
     atom   20 type  1   force =    -0.00001624    0.00216243    0.00000000
     atom   21 type  1   force =     0.00158108   -0.00518987    0.00000000
     atom   22 type  1   force =     0.00187376   -0.00110608    0.00000000
     atom   23 type  1   force =    -0.00000654   -0.00000556    0.00000000
     atom   24 type  1   force =     0.00000351   -0.00235036    0.00000000
     atom   25 type  1   force =     0.00367374    0.00398011    0.00000000
     atom   26 type  1   force =     0.00113053    0.00065077    0.00000000
     atom   27 type  1   force =    -0.00004239   -0.00052804    0.00000000
     atom   28 type  1   force =    -0.00202386    0.00116192    0.00000000
     atom   29 type  1   force =    -0.00047146    0.00023980    0.00000000
     atom   30 type  1   force =    -0.00185349   -0.00111054    0.00000000
     atom   31 type  1   force =     0.00524297    0.00122806    0.00000000

     Total force =     0.031208     Total SCF correction =     0.000314


     Computing stress (Cartesian axis) and pressure

          total   stress  (Ry/bohr**3)                   (kbar)     P=   -0.57
  -0.00000579   0.00000002   0.00000000         -0.85      0.00      0.00
   0.00000002  -0.00000579   0.00000000          0.00     -0.85      0.00
   0.00000000   0.00000000   0.00000001          0.00      0.00      0.00


     BFGS Geometry Optimization

     number of scf cycles    =   1
     number of bfgs steps    =   0

     enthalpy new            =    -140.9361121932 Ry

     new trust radius        =       0.0151594480 bohr
     new conv_thr            =       0.0000010000 Ry

     new unit-cell volume =  37119.56808 a.u.^3 (  5500.55241 Ang^3 )
     density =      0.28059 g/cm^3

CELL_PARAMETERS (alat= 33.68096681)
   0.999855308   0.000000392   0.000000000
  -0.499927315   0.865899913   0.000000000
   0.000000000   0.000000000   1.122132950

ATOMIC_POSITIONS (angstrom)
Al      -0.001338141   2.573394210   0.000000000
Al       2.234545510   1.290128418   0.000000000
Al      -2.228137835   6.430877317   0.000000000
Al       0.000621576   5.144066586   0.000000000
Al      -4.455126445  10.288153212   0.000000000
Al      -2.227292455   9.002851401   0.000000000
Al      -6.682369188  14.145368960   0.000000000
Al      -4.455108237  12.861692647   0.000000000
Al       6.675854859   1.290153820   0.000000000
Al       2.225927546   6.431133582   0.000000000
Al       4.455209841   5.136425325   0.000000000
Al       0.001104879  10.289444971   0.000000000
Al       2.226798636   8.999988644   0.000000000
Al      -2.227851806  14.145377523   0.000000000
Al      -0.002737699  12.861701077   0.000000000
Al       8.911691984   2.573419669   0.000000000
Al      11.136000362   1.288257653   0.000000000
Al       6.684457861   6.431148527   0.000000000
Al       8.909792037   5.144099880   0.000000000
Al       4.455202434  10.290007564   0.000000000
Al       6.683652038   9.000009990   0.000000000
Al       2.228631664  14.146582132   0.000000000
Al       4.455241255  12.861056950   0.000000000
Al      13.365530504   2.571031912   0.000000000
Al      15.595076889   1.288273897   0.000000000
Al      11.138556040   6.430923749   0.000000000
Al      13.365539906   5.144192566   0.000000000
Al       8.909316276  10.289498136   0.000000000
Al      11.137742115   9.002902769   0.000000000
Al       6.681835650  14.146599709   0.000000000
Al       8.913194852  12.861729597   0.000000000



     Writing output data file 9al_planar_2x2_vcr.save/
     NEW-OLD atomic charge density approx. for the potential

     negative rho (up, down):  2.992E-07 0.000E+00
     extrapolated charge   92.97310, renormalised to   93.00000

     total cpu time spent up to now is      602.9 secs

     Self-consistent Calculation

     iteration #  1     ecut=    80.00 Ry     beta= 0.40
     Davidson diagonalization with overlap
     ethr =  1.00E-06,  avg # of iterations =  4.0

     Threshold (ethr) on eigenvalues was too large:
     Diagonalizing with lowered threshold

     Davidson diagonalization with overlap
     ethr =  4.58E-08,  avg # of iterations =  6.0

     negative rho (up, down):  1.482E-07 0.000E+00

     total cpu time spent up to now is      661.0 secs

     total energy              =    -140.93708569 Ry
     Harris-Foulkes estimate   =    -141.07021994 Ry
     estimated scf accuracy    <       0.00006256 Ry

     iteration #  2     ecut=    80.00 Ry     beta= 0.40
     Davidson diagonalization with overlap
     ethr =  6.73E-08,  avg # of iterations =  5.0

     negative rho (up, down):  1.318E-07 0.000E+00

     total cpu time spent up to now is      690.3 secs

     total energy              =    -140.93707145 Ry
     Harris-Foulkes estimate   =    -140.93715781 Ry
     estimated scf accuracy    <       0.00061059 Ry

     iteration #  3     ecut=    80.00 Ry     beta= 0.40
     Davidson diagonalization with overlap
     ethr =  6.73E-08,  avg # of iterations =  5.0

     negative rho (up, down):  8.563E-08 0.000E+00

     total cpu time spent up to now is      717.8 secs

     total energy              =    -140.93711222 Ry
     Harris-Foulkes estimate   =    -140.93711708 Ry
     estimated scf accuracy    <       0.00002027 Ry

     iteration #  4     ecut=    80.00 Ry     beta= 0.40
     Davidson diagonalization with overlap
     ethr =  2.18E-08,  avg # of iterations =  3.0

     negative rho (up, down):  5.531E-08 0.000E+00

     total cpu time spent up to now is      739.6 secs

     total energy              =    -140.93711341 Ry
     Harris-Foulkes estimate   =    -140.93711544 Ry
     estimated scf accuracy    <       0.00000836 Ry

     iteration #  5     ecut=    80.00 Ry     beta= 0.40
     Davidson diagonalization with overlap
     ethr =  8.99E-09,  avg # of iterations =  4.0

     negative rho (up, down):  3.491E-08 0.000E+00

     total cpu time spent up to now is      764.1 secs

     total energy              =    -140.93711341 Ry
     Harris-Foulkes estimate   =    -140.93711606 Ry
     estimated scf accuracy    <       0.00001684 Ry

     iteration #  6     ecut=    80.00 Ry     beta= 0.40
     Davidson diagonalization with overlap
     ethr =  8.99E-09,  avg # of iterations =  3.0

     total cpu time spent up to now is      786.3 secs

     End of self-consistent calculation

          k = 0.0000 0.0000 0.0000 (448403 PWs)   bands (ev):

    -9.9528  -9.4482  -9.4330  -9.4329  -9.4249  -9.4248  -9.1436  -8.4035
    -8.4034  -8.3841  -8.3841  -8.3824  -8.3044  -8.2542  -8.2541  -7.5848
    -6.9318  -6.9318  -6.8224  -6.4818  -6.4771  -6.4770  -6.3718  -6.3718
    -5.4690  -4.8392  -4.8391  -4.8345  -4.7360  -4.7360  -4.4761  -4.4668
    -4.4427  -4.4426  -4.1248  -4.1246  -3.9776  -3.4709  -3.4674  -3.4673
    -3.4579  -3.4577  -3.3996  -3.2727  -3.2725  -3.2209  -3.2174  -2.9698
    -2.9631  -2.9630  -2.9406  -2.5166  -2.5164  -2.4456  -2.4451  -2.4333

     the Fermi energy is    -3.0904 ev

!    total energy              =    -140.93711458 Ry
     Harris-Foulkes estimate   =    -140.93711487 Ry
     estimated scf accuracy    <       0.00000087 Ry

     The total energy is the sum of the following terms:

     one-electron contribution =    -502.12174366 Ry
     hartree contribution      =     259.80341025 Ry
     xc contribution           =     -61.33334005 Ry
     ewald contribution        =     162.79519779 Ry
     smearing contrib. (-TS)   =      -0.08063891 Ry

     convergence has been achieved in   6 iterations

     Forces acting on atoms (cartesian axes, Ry/au):

     atom    1 type  1   force =    -0.00136618    0.00161764    0.00000000
     atom    2 type  1   force =     0.01296668    0.00749243    0.00000000
     atom    3 type  1   force =    -0.00085217    0.00054869    0.00000000
     atom    4 type  1   force =     0.00079651   -0.00046571    0.00000000
     atom    5 type  1   force =     0.00002166   -0.00100861    0.00000000
     atom    6 type  1   force =     0.00066316    0.00037085    0.00000000
     atom    7 type  1   force =     0.00071676   -0.00199974    0.00000000
     atom    8 type  1   force =    -0.00000021    0.00091897    0.00000000
     atom    9 type  1   force =    -0.01294326    0.00750485    0.00000000
     atom   10 type  1   force =    -0.00206606    0.00041283    0.00000000
     atom   11 type  1   force =     0.00000969   -0.01496710    0.00000000
     atom   12 type  1   force =     0.00197441    0.00112414    0.00000000
     atom   13 type  1   force =    -0.00117954   -0.00446065    0.00000000
     atom   14 type  1   force =    -0.00067954   -0.00201391    0.00000000
     atom   15 type  1   force =    -0.00445476    0.00122797    0.00000000
     atom   16 type  1   force =     0.00136294    0.00159420    0.00000000
     atom   17 type  1   force =    -0.00326943    0.00327330    0.00000000
     atom   18 type  1   force =     0.00205911    0.00040390    0.00000000
     atom   19 type  1   force =    -0.00080904   -0.00048148    0.00000000
     atom   20 type  1   force =    -0.00001570    0.00160129    0.00000000
     atom   21 type  1   force =     0.00119338   -0.00446300    0.00000000
     atom   22 type  1   force =     0.00138652   -0.00083685    0.00000000
     atom   23 type  1   force =     0.00000201    0.00001155    0.00000000
     atom   24 type  1   force =     0.00000729   -0.00228921    0.00000000
     atom   25 type  1   force =     0.00323925    0.00324339    0.00000000
     atom   26 type  1   force =     0.00090535    0.00052368    0.00000000
     atom   27 type  1   force =    -0.00004207   -0.00076428    0.00000000
     atom   28 type  1   force =    -0.00198161    0.00115155    0.00000000
     atom   29 type  1   force =    -0.00067545    0.00036018    0.00000000
     atom   30 type  1   force =    -0.00136739   -0.00082745    0.00000000
     atom   31 type  1   force =     0.00439770    0.00119662    0.00000000

     Total force =     0.029273     Total SCF correction =     0.000575


     Computing stress (Cartesian axis) and pressure

          total   stress  (Ry/bohr**3)                   (kbar)     P=   -0.58
  -0.00000592   0.00000002   0.00000000         -0.87      0.00      0.00
   0.00000002  -0.00000592   0.00000000          0.00     -0.87      0.00
   0.00000000   0.00000000  -0.00000006          0.00      0.00     -0.01


     number of scf cycles    =   2
     number of bfgs steps    =   1

     enthalpy old            =    -140.9361121932 Ry
     enthalpy new            =    -140.9371145819 Ry

     CASE: enthalpy_new < enthalpy_old


     WARNING: bfgs curvature condition failed, Theta= 0.854
     new trust radius        =       0.0227358896 bohr
     new conv_thr            =       0.0000010000 Ry

     new unit-cell volume =  37103.10508 a.u.^3 (  5498.11285 Ang^3 )
     density =      0.28071 g/cm^3

CELL_PARAMETERS (alat= 33.68096681)
   0.999633499   0.000000984   0.000000000
  -0.499815897   0.865707629   0.000000000
   0.000000000   0.000000000   1.122132950

ATOMIC_POSITIONS (angstrom)
Al      -0.002788698   2.574305567   0.000000000
Al       2.244463070   1.295865995   0.000000000
Al      -2.228389184   6.429928197   0.000000000
Al       0.001358369   5.142495740   0.000000000
Al      -4.454112819  10.284983212   0.000000000
Al      -2.226325287   9.001114798   0.000000000
Al      -6.680326769  14.140220242   0.000000000
Al      -4.454112861  12.859682003   0.000000000
Al       6.663982119   1.295903284   0.000000000
Al       2.223443639   6.430258760   0.000000000
Al       4.454229067   5.123272941   0.000000000
Al       0.002703885  10.288066165   0.000000000
Al       2.225240257   8.994202015   0.000000000
Al      -2.227866943  14.140217847   0.000000000
Al      -0.006553547  12.859837694   0.000000000
Al       8.911167820   2.574316385   0.000000000
Al      11.130784375   1.290816297   0.000000000
Al       6.684968056   6.430269055   0.000000000
Al       8.907074551   5.142522726   0.000000000
Al       4.454207467  10.289182495   0.000000000
Al       6.683248676   8.994225673   0.000000000
Al       2.229404879  14.142694531   0.000000000
Al       4.454259479  12.858211969   0.000000000
Al      13.362571655   2.568620831   0.000000000
Al      15.594342022   1.290818374   0.000000000
Al      11.136882317   6.429962460   0.000000000
Al      13.362544196   5.142522065   0.000000000
Al       8.905748718  10.288145796   0.000000000
Al      11.134799826   9.001163906   0.000000000
Al       6.679118138  14.142717964   0.000000000
Al       8.915002402  12.859849498   0.000000000



     Writing output data file 9al_planar_2x2_vcr.save/
     NEW-OLD atomic charge density approx. for the potential

     negative rho (up, down):  4.807E-07 0.000E+00
     extrapolated charge   92.95877, renormalised to   93.00000

     total cpu time spent up to now is      879.9 secs

     Self-consistent Calculation

     iteration #  1     ecut=    80.00 Ry     beta= 0.40
     Davidson diagonalization with overlap
     ethr =  1.00E-06,  avg # of iterations =  4.0

     negative rho (up, down):  2.407E-07 0.000E+00

     total cpu time spent up to now is      913.4 secs

     total energy              =    -140.93836924 Ry
     Harris-Foulkes estimate   =    -141.14258733 Ry
     estimated scf accuracy    <       0.00019500 Ry

     iteration #  2     ecut=    80.00 Ry     beta= 0.40
     Davidson diagonalization with overlap
     ethr =  2.10E-07,  avg # of iterations =  5.0

     negative rho (up, down):  2.184E-07 0.000E+00

     total cpu time spent up to now is      944.7 secs

     total energy              =    -140.93827824 Ry
     Harris-Foulkes estimate   =    -140.93871267 Ry
     estimated scf accuracy    <       0.00353989 Ry

     iteration #  3     ecut=    80.00 Ry     beta= 0.40
     Davidson diagonalization with overlap
     ethr =  2.10E-07,  avg # of iterations =  4.0

     negative rho (up, down):  1.401E-07 0.000E+00

     total cpu time spent up to now is      972.6 secs

     total energy              =    -140.93847912 Ry
     Harris-Foulkes estimate   =    -140.93848501 Ry
     estimated scf accuracy    <       0.00002457 Ry

     iteration #  4     ecut=    80.00 Ry     beta= 0.40
     Davidson diagonalization with overlap
     ethr =  2.64E-08,  avg # of iterations =  4.0

     negative rho (up, down):  1.026E-07 0.000E+00

     total cpu time spent up to now is      997.7 secs

     total energy              =    -140.93847929 Ry
     Harris-Foulkes estimate   =    -140.93848408 Ry
     estimated scf accuracy    <       0.00002118 Ry

     iteration #  5     ecut=    80.00 Ry     beta= 0.40
     Davidson diagonalization with overlap
     ethr =  2.28E-08,  avg # of iterations =  4.0

     negative rho (up, down):  4.977E-08 0.000E+00

     total cpu time spent up to now is     1022.0 secs

     total energy              =    -140.93848036 Ry
     Harris-Foulkes estimate   =    -140.93848439 Ry
     estimated scf accuracy    <       0.00002635 Ry

     iteration #  6     ecut=    80.00 Ry     beta= 0.40
     Davidson diagonalization with overlap
     ethr =  2.28E-08,  avg # of iterations =  1.0

     negative rho (up, down):  2.126E-08 0.000E+00

     total cpu time spent up to now is     1042.5 secs

     total energy              =    -140.93848220 Ry
     Harris-Foulkes estimate   =    -140.93848280 Ry
     estimated scf accuracy    <       0.00000275 Ry

     iteration #  7     ecut=    80.00 Ry     beta= 0.40
     Davidson diagonalization with overlap
     ethr =  2.96E-09,  avg # of iterations =  6.0

     negative rho (up, down):  1.187E-08 0.000E+00

     total cpu time spent up to now is     1069.0 secs

     total energy              =    -140.93848220 Ry
     Harris-Foulkes estimate   =    -140.93848346 Ry
     estimated scf accuracy    <       0.00000939 Ry

     iteration #  8     ecut=    80.00 Ry     beta= 0.40
     Davidson diagonalization with overlap
     ethr =  2.96E-09,  avg # of iterations =  4.0

     total cpu time spent up to now is     1089.6 secs

     End of self-consistent calculation

          k = 0.0000 0.0000 0.0000 (448403 PWs)   bands (ev):

    -9.9541  -9.4493  -9.4355  -9.4354  -9.4238  -9.4238  -9.1415  -8.4033
    -8.4032  -8.3871  -8.3801  -8.3801  -8.3070  -8.2509  -8.2508  -7.5838
    -6.9324  -6.9324  -6.8227  -6.4780  -6.4779  -6.4767  -6.3751  -6.3750
    -5.4773  -4.8346  -4.8345  -4.8326  -4.7375  -4.7374  -4.4748  -4.4663
    -4.4436  -4.4436  -4.1292  -4.1291  -3.9783  -3.4713  -3.4668  -3.4668
    -3.4587  -3.4586  -3.3976  -3.2714  -3.2714  -3.2328  -3.2197  -2.9653
    -2.9610  -2.9610  -2.9437  -2.5134  -2.5133  -2.4415  -2.4412  -2.4367

     the Fermi energy is    -3.0906 ev

!    total energy              =    -140.93848259 Ry
     Harris-Foulkes estimate   =    -140.93848279 Ry
     estimated scf accuracy    <       0.00000033 Ry

     The total energy is the sum of the following terms:

     one-electron contribution =    -502.26187822 Ry
     hartree contribution      =     259.87553642 Ry
     xc contribution           =     -61.33161897 Ry
     ewald contribution        =     162.85962722 Ry
     smearing contrib. (-TS)   =      -0.08014903 Ry

     convergence has been achieved in   8 iterations

     Forces acting on atoms (cartesian axes, Ry/au):

     atom    1 type  1   force =     0.00021341    0.00082229    0.00000000
     atom    2 type  1   force =     0.01283251    0.00739891    0.00000000
     atom    3 type  1   force =    -0.00058373    0.00037185    0.00000000
     atom    4 type  1   force =     0.00038353   -0.00021878    0.00000000
     atom    5 type  1   force =     0.00002440   -0.00070297    0.00000000
     atom    6 type  1   force =     0.00090964    0.00052311    0.00000000
     atom    7 type  1   force =     0.00081194   -0.00023188    0.00000000
     atom    8 type  1   force =    -0.00000698    0.00045670    0.00000000
     atom    9 type  1   force =    -0.01280552    0.00741789    0.00000000
     atom   10 type  1   force =    -0.00059540   -0.00057386    0.00000000
     atom   11 type  1   force =     0.00001361   -0.01480656    0.00000000
     atom   12 type  1   force =     0.00191449    0.00110168    0.00000000
     atom   13 type  1   force =    -0.00066146   -0.00343440    0.00000000
     atom   14 type  1   force =    -0.00078885   -0.00024644    0.00000000
     atom   15 type  1   force =    -0.00331560    0.00115093    0.00000000
     atom   16 type  1   force =    -0.00020707    0.00080515    0.00000000
     atom   17 type  1   force =    -0.00264903    0.00230373    0.00000000
     atom   18 type  1   force =     0.00058928   -0.00057832    0.00000000
     atom   19 type  1   force =    -0.00041041   -0.00023729    0.00000000
     atom   20 type  1   force =    -0.00000283    0.00085482    0.00000000
     atom   21 type  1   force =     0.00066960   -0.00343761    0.00000000
     atom   22 type  1   force =     0.00074330   -0.00043968    0.00000000
     atom   23 type  1   force =    -0.00000224    0.00000153    0.00000000
     atom   24 type  1   force =    -0.00000157   -0.00221782    0.00000000
     atom   25 type  1   force =     0.00261971    0.00229311    0.00000000
     atom   26 type  1   force =     0.00062541    0.00034897    0.00000000
     atom   27 type  1   force =    -0.00002158   -0.00105213    0.00000000
     atom   28 type  1   force =    -0.00193167    0.00111645    0.00000000
     atom   29 type  1   force =    -0.00092348    0.00052645    0.00000000
     atom   30 type  1   force =    -0.00073569   -0.00044878    0.00000000
     atom   31 type  1   force =     0.00329228    0.00113292    0.00000000

     Total force =     0.027526     Total SCF correction =     0.000370


     Computing stress (Cartesian axis) and pressure

          total   stress  (Ry/bohr**3)                   (kbar)     P=   -0.60
  -0.00000609   0.00000002   0.00000000         -0.90      0.00      0.00
   0.00000002  -0.00000609   0.00000000          0.00     -0.90      0.00
   0.00000000   0.00000000   0.00000003          0.00      0.00      0.00


     number of scf cycles    =   3
     number of bfgs steps    =   2

     enthalpy old            =    -140.9371145819 Ry
     enthalpy new            =    -140.9384825858 Ry

     CASE: enthalpy_new < enthalpy_old

     new trust radius        =       0.0340962873 bohr
     new conv_thr            =       0.0000010000 Ry

     new unit-cell volume =  37077.91102 a.u.^3 (  5494.37947 Ang^3 )
     density =      0.28090 g/cm^3

CELL_PARAMETERS (alat= 33.68096681)
   0.999294011   0.000001879   0.000000000
  -0.499645378   0.865413246   0.000000000
   0.000000000   0.000000000   1.122132950

ATOMIC_POSITIONS (angstrom)
Al      -0.003990582   2.575171688   0.000000000
Al       2.259319536   1.304451351   0.000000000
Al      -2.228590848   6.428353316   0.000000000
Al       0.002212211   5.140254488   0.000000000
Al      -4.452559685  10.280339097   0.000000000
Al      -2.224703884   8.998544539   0.000000000
Al      -6.677154406  14.133485539   0.000000000
Al      -4.452594206  12.856296444   0.000000000
Al       6.646135424   1.304510797   0.000000000
Al       2.220603239   6.428290140   0.000000000
Al       4.452729649   5.103519079   0.000000000
Al       0.005076851  10.285919439   0.000000000
Al       2.223200758   8.986074225   0.000000000
Al      -2.227946178  14.133465830   0.000000000
Al      -0.011595579  12.856910702   0.000000000
Al       8.909354128   2.575164451   0.000000000
Al      11.123253900   1.294061655   0.000000000
Al       6.684788351   6.428296429   0.000000000
Al       8.903179550   5.140270378   0.000000000
Al       4.452693489  10.287420283   0.000000000
Al       6.682279857   8.986101171   0.000000000
Al       2.230158899  14.137009707   0.000000000
Al       4.452753201  12.853848084   0.000000000
Al      13.358036591   2.565017158   0.000000000
Al      15.592765993   1.294057160   0.000000000
Al      11.134128963   6.428370696   0.000000000
Al      13.357973719   5.139799563   0.000000000
Al       8.900356299  10.286030237   0.000000000
Al      11.130154555   8.998599372   0.000000000
Al       6.675379875  14.137028420   0.000000000
Al       8.916994027  12.856907115   0.000000000



     Writing output data file 9al_planar_2x2_vcr.save/
     NEW-OLD atomic charge density approx. for the potential

     negative rho (up, down):  7.507E-07 0.000E+00
     extrapolated charge   92.93686, renormalised to   93.00000

     total cpu time spent up to now is     1180.3 secs

     Self-consistent Calculation

     iteration #  1     ecut=    80.00 Ry     beta= 0.40
     Davidson diagonalization with overlap
     ethr =  1.00E-06,  avg # of iterations =  5.0

     negative rho (up, down):  3.818E-07 0.000E+00

     total cpu time spent up to now is     1216.9 secs

     total energy              =    -140.94023971 Ry
     Harris-Foulkes estimate   =    -141.25303074 Ry
     estimated scf accuracy    <       0.00019182 Ry

     iteration #  2     ecut=    80.00 Ry     beta= 0.40
     Davidson diagonalization with overlap
     ethr =  2.06E-07,  avg # of iterations =  5.0

     negative rho (up, down):  3.441E-07 0.000E+00

     total cpu time spent up to now is     1249.1 secs

     total energy              =    -140.94022065 Ry
     Harris-Foulkes estimate   =    -140.94049415 Ry
     estimated scf accuracy    <       0.00207829 Ry

     iteration #  3     ecut=    80.00 Ry     beta= 0.40
     Davidson diagonalization with overlap
     ethr =  2.06E-07,  avg # of iterations =  4.0

     negative rho (up, down):  2.255E-07 0.000E+00

     total cpu time spent up to now is     1276.8 secs

     total energy              =    -140.94034918 Ry
     Harris-Foulkes estimate   =    -140.94036266 Ry
     estimated scf accuracy    <       0.00006281 Ry

     iteration #  4     ecut=    80.00 Ry     beta= 0.40
     Davidson diagonalization with overlap
     ethr =  6.75E-08,  avg # of iterations =  3.0

     negative rho (up, down):  1.523E-07 0.000E+00

     total cpu time spent up to now is     1300.3 secs

     total energy              =    -140.94034932 Ry
     Harris-Foulkes estimate   =    -140.94035576 Ry
     estimated scf accuracy    <       0.00002446 Ry

     iteration #  5     ecut=    80.00 Ry     beta= 0.40
     Davidson diagonalization with overlap
     ethr =  2.63E-08,  avg # of iterations =  4.0

     negative rho (up, down):  6.963E-08 0.000E+00

     total cpu time spent up to now is     1325.4 secs

     total energy              =    -140.94034662 Ry
     Harris-Foulkes estimate   =    -140.94036044 Ry
     estimated scf accuracy    <       0.00009406 Ry

     iteration #  6     ecut=    80.00 Ry     beta= 0.40
     Davidson diagonalization with overlap
     ethr =  2.63E-08,  avg # of iterations =  4.0

     negative rho (up, down):  2.832E-08 0.000E+00

     total cpu time spent up to now is     1349.1 secs

     total energy              =    -140.94035359 Ry
     Harris-Foulkes estimate   =    -140.94035467 Ry
     estimated scf accuracy    <       0.00000655 Ry

     iteration #  7     ecut=    80.00 Ry     beta= 0.40
     Davidson diagonalization with overlap
     ethr =  7.04E-09,  avg # of iterations =  4.0

     negative rho (up, down):  1.883E-08 0.000E+00

     total cpu time spent up to now is     1373.1 secs

     total energy              =    -140.94035417 Ry
     Harris-Foulkes estimate   =    -140.94035475 Ry
     estimated scf accuracy    <       0.00000356 Ry

     iteration #  8     ecut=    80.00 Ry     beta= 0.40
     Davidson diagonalization with overlap
     ethr =  3.83E-09,  avg # of iterations =  3.0

     total cpu time spent up to now is     1396.2 secs

     total energy              =    -140.94035451 Ry
     Harris-Foulkes estimate   =    -140.94035466 Ry
     estimated scf accuracy    <       0.00000124 Ry

     iteration #  9     ecut=    80.00 Ry     beta= 0.40
     Davidson diagonalization with overlap
     ethr =  1.34E-09,  avg # of iterations =  3.0

     total cpu time spent up to now is     1418.8 secs

     End of self-consistent calculation

          k = 0.0000 0.0000 0.0000 (448403 PWs)   bands (ev):

    -9.9552  -9.4500  -9.4387  -9.4386  -9.4210  -9.4209  -9.1384  -8.4024
    -8.4024  -8.3922  -8.3744  -8.3743  -8.3098  -8.2450  -8.2449  -7.5818
    -6.9325  -6.9325  -6.8228  -6.4780  -6.4780  -6.4692  -6.3782  -6.3781
    -5.4886  -4.8291  -4.8274  -4.8274  -4.7380  -4.7380  -4.4721  -4.4643
    -4.4442  -4.4442  -4.1350  -4.1349  -3.9786  -3.4713  -3.4669  -3.4668
    -3.4579  -3.4578  -3.3937  -3.2686  -3.2686  -3.2555  -3.2178  -2.9601
    -2.9572  -2.9572  -2.9440  -2.5081  -2.5080  -2.4403  -2.4356  -2.4354

     the Fermi energy is    -3.0901 ev

!    total energy              =    -140.94035430 Ry
     Harris-Foulkes estimate   =    -140.94035465 Ry
     estimated scf accuracy    <       0.00000045 Ry

     The total energy is the sum of the following terms:

     one-electron contribution =    -502.47097161 Ry
     hartree contribution      =     259.97902170 Ry
     xc contribution           =     -61.32824761 Ry
     ewald contribution        =     162.95914829 Ry
     smearing contrib. (-TS)   =      -0.07930508 Ry

     convergence has been achieved in   9 iterations

     Forces acting on atoms (cartesian axes, Ry/au):

     atom    1 type  1   force =     0.00224594   -0.00025752    0.00000000
     atom    2 type  1   force =     0.01278570    0.00735923    0.00000000
     atom    3 type  1   force =    -0.00026464    0.00017340    0.00000000
     atom    4 type  1   force =    -0.00009641    0.00006078    0.00000000
     atom    5 type  1   force =     0.00002476   -0.00032966    0.00000000
     atom    6 type  1   force =     0.00123258    0.00071186    0.00000000
     atom    7 type  1   force =     0.00091258    0.00208651    0.00000000
     atom    8 type  1   force =    -0.00000915   -0.00008599    0.00000000
     atom    9 type  1   force =    -0.01276940    0.00738407    0.00000000
     atom   10 type  1   force =     0.00134587   -0.00180927    0.00000000
     atom   11 type  1   force =     0.00001327   -0.01474842    0.00000000
     atom   12 type  1   force =     0.00186101    0.00107950    0.00000000
     atom   13 type  1   force =    -0.00002440   -0.00218131    0.00000000
     atom   14 type  1   force =    -0.00089108    0.00207059    0.00000000
     atom   15 type  1   force =    -0.00190006    0.00106617    0.00000000
     atom   16 type  1   force =    -0.00224878   -0.00027436    0.00000000
     atom   17 type  1   force =    -0.00187885    0.00112350    0.00000000
     atom   18 type  1   force =    -0.00136246   -0.00182450    0.00000000
     atom   19 type  1   force =     0.00006466    0.00004151    0.00000000
     atom   20 type  1   force =    -0.00001507   -0.00005229    0.00000000
     atom   21 type  1   force =     0.00004130   -0.00218558    0.00000000
     atom   22 type  1   force =    -0.00005473    0.00002085    0.00000000
     atom   23 type  1   force =     0.00000889   -0.00000006    0.00000000
     atom   24 type  1   force =    -0.00000429   -0.00215943    0.00000000
     atom   25 type  1   force =     0.00186443    0.00111558    0.00000000
     atom   26 type  1   force =     0.00030780    0.00014658    0.00000000
     atom   27 type  1   force =    -0.00001096   -0.00142397    0.00000000
     atom   28 type  1   force =    -0.00187649    0.00109318    0.00000000
     atom   29 type  1   force =    -0.00124168    0.00072632    0.00000000
     atom   30 type  1   force =     0.00004307    0.00001541    0.00000000
     atom   31 type  1   force =     0.00189658    0.00105734    0.00000000

     Total force =     0.027065     Total SCF correction =     0.000497


     Computing stress (Cartesian axis) and pressure

          total   stress  (Ry/bohr**3)                   (kbar)     P=   -0.62
  -0.00000634   0.00000002   0.00000000         -0.93      0.00      0.00
   0.00000002  -0.00000634   0.00000000          0.00     -0.93      0.00
   0.00000000   0.00000000   0.00000003          0.00      0.00      0.00


     number of scf cycles    =   4
     number of bfgs steps    =   3

     enthalpy old            =    -140.9384825858 Ry
     enthalpy new            =    -140.9403543043 Ry

     CASE: enthalpy_new < enthalpy_old

     new trust radius        =       0.0511271023 bohr
     new conv_thr            =       0.0000010000 Ry

     new unit-cell volume =  37039.66882 a.u.^3 (  5488.71257 Ang^3 )
     density =      0.28119 g/cm^3

CELL_PARAMETERS (alat= 33.68096681)
   0.998778459   0.000003205   0.000000000
  -0.499386454   0.864966245   0.000000000
   0.000000000   0.000000000   1.122132950

ATOMIC_POSITIONS (angstrom)
Al      -0.004737867   2.575886217   0.000000000
Al       2.281571991   1.317306026   0.000000000
Al      -2.228718634   6.425851188   0.000000000
Al       0.003251534   5.136999673   0.000000000
Al      -4.450201669  10.273497558   0.000000000
Al      -2.222092078   8.994728723   0.000000000
Al      -6.672305843  14.124504213   0.000000000
Al      -4.450288951  12.850863680   0.000000000
Al       6.619334005   1.317401374   0.000000000
Al       2.217343168   6.424659498   0.000000000
Al       4.450450598   5.073879594   0.000000000
Al       0.008609643  10.282622472   0.000000000
Al       2.220452358   8.974473382   0.000000000
Al      -2.228097377  14.124457002   0.000000000
Al      -0.018427455  12.852393156   0.000000000
Al       8.905514641   2.575850817   0.000000000
Al      11.112289507   1.298315286   0.000000000
Al       6.683454849   6.424651871   0.000000000
Al       8.897520645   5.136998908   0.000000000
Al       4.450384262  10.284248840   0.000000000
Al       6.680463920   8.974504998   0.000000000
Al       2.230865582  14.128627799   0.000000000
Al       4.450472701  12.847220282   0.000000000
Al      13.351148511   2.559622820   0.000000000
Al      15.589912030   1.298302037   0.000000000
Al      11.129770530   6.425840101   0.000000000
Al      13.351037838   5.135493269   0.000000000
Al       8.892240593  10.282780573   0.000000000
Al      11.122953911   8.994797046   0.000000000
Al       6.670128727  14.128643103   0.000000000
Al       8.919202061  12.852371577   0.000000000



     Writing output data file 9al_planar_2x2_vcr.save/
     NEW-OLD atomic charge density approx. for the potential

     negative rho (up, down):  1.150E-06 0.000E+00
     extrapolated charge   92.90406, renormalised to   93.00000

     total cpu time spent up to now is     1512.8 secs

     Self-consistent Calculation

     iteration #  1     ecut=    80.00 Ry     beta= 0.40
     Davidson diagonalization with overlap
     ethr =  1.00E-06,  avg # of iterations =  6.0

     negative rho (up, down):  5.946E-07 0.000E+00

     total cpu time spent up to now is     1552.2 secs

     total energy              =    -140.94276630 Ry
     Harris-Foulkes estimate   =    -141.41836123 Ry
     estimated scf accuracy    <       0.00033580 Ry

     iteration #  2     ecut=    80.00 Ry     beta= 0.40
     Davidson diagonalization with overlap
     ethr =  3.61E-07,  avg # of iterations =  6.0

     negative rho (up, down):  5.322E-07 0.000E+00

     total cpu time spent up to now is     1584.7 secs

     total energy              =    -140.94279450 Ry
     Harris-Foulkes estimate   =    -140.94316649 Ry
     estimated scf accuracy    <       0.00266756 Ry

     iteration #  3     ecut=    80.00 Ry     beta= 0.40
     Davidson diagonalization with overlap
     ethr =  3.61E-07,  avg # of iterations =  4.0

     negative rho (up, down):  3.532E-07 0.000E+00

     total cpu time spent up to now is     1609.0 secs

     total energy              =    -140.94296357 Ry
     Harris-Foulkes estimate   =    -140.94299029 Ry
     estimated scf accuracy    <       0.00012545 Ry

     iteration #  4     ecut=    80.00 Ry     beta= 0.40
     Davidson diagonalization with overlap
     ethr =  1.35E-07,  avg # of iterations =  3.0

     negative rho (up, down):  2.451E-07 0.000E+00

     total cpu time spent up to now is     1627.6 secs

     total energy              =    -140.94296281 Ry
     Harris-Foulkes estimate   =    -140.94297628 Ry
     estimated scf accuracy    <       0.00005865 Ry

     iteration #  5     ecut=    80.00 Ry     beta= 0.40
     Davidson diagonalization with overlap
     ethr =  6.31E-08,  avg # of iterations =  5.0

     negative rho (up, down):  8.947E-08 0.000E+00

     total cpu time spent up to now is     1652.2 secs

     total energy              =    -140.94295631 Ry
     Harris-Foulkes estimate   =    -140.94298432 Ry
     estimated scf accuracy    <       0.00018840 Ry

     iteration #  6     ecut=    80.00 Ry     beta= 0.40
     Davidson diagonalization with overlap
     ethr =  6.31E-08,  avg # of iterations =  4.0

     negative rho (up, down):  3.883E-08 0.000E+00

     total cpu time spent up to now is     1674.9 secs

     total energy              =    -140.94297036 Ry
     Harris-Foulkes estimate   =    -140.94297231 Ry
     estimated scf accuracy    <       0.00001224 Ry

     iteration #  7     ecut=    80.00 Ry     beta= 0.40
     Davidson diagonalization with overlap
     ethr =  1.32E-08,  avg # of iterations =  5.0

     negative rho (up, down):  2.927E-08 0.000E+00

     total cpu time spent up to now is     1696.1 secs

     total energy              =    -140.94297125 Ry
     Harris-Foulkes estimate   =    -140.94297219 Ry
     estimated scf accuracy    <       0.00000632 Ry

     iteration #  8     ecut=    80.00 Ry     beta= 0.40
     Davidson diagonalization with overlap
     ethr =  6.79E-09,  avg # of iterations =  2.0

     total cpu time spent up to now is     1718.1 secs

     total energy              =    -140.94297161 Ry
     Harris-Foulkes estimate   =    -140.94297189 Ry
     estimated scf accuracy    <       0.00000193 Ry

     iteration #  9     ecut=    80.00 Ry     beta= 0.40
     Davidson diagonalization with overlap
     ethr =  2.08E-09,  avg # of iterations =  5.0

     total cpu time spent up to now is     1748.0 secs

     total energy              =    -140.94297155 Ry
     Harris-Foulkes estimate   =    -140.94297179 Ry
     estimated scf accuracy    <       0.00000185 Ry

     iteration # 10     ecut=    80.00 Ry     beta= 0.40
     Davidson diagonalization with overlap
     ethr =  1.98E-09,  avg # of iterations =  3.0

     total cpu time spent up to now is     1770.1 secs

     total energy              =    -140.94297146 Ry
     Harris-Foulkes estimate   =    -140.94297160 Ry
     estimated scf accuracy    <       0.00000123 Ry

     iteration # 11     ecut=    80.00 Ry     beta= 0.40
     Davidson diagonalization with overlap
     ethr =  1.32E-09,  avg # of iterations =  1.0

     total cpu time spent up to now is     1790.5 secs

     End of self-consistent calculation

          k = 0.0000 0.0000 0.0000 (448403 PWs)   bands (ev):

    -9.9566  -9.4514  -9.4433  -9.4431  -9.4164  -9.4163  -9.1343  -8.4015
    -8.4014  -8.3981  -8.3675  -8.3673  -8.3130  -8.2352  -8.2351  -7.5794
    -6.9328  -6.9328  -6.8231  -6.4774  -6.4773  -6.4584  -6.3816  -6.3815
    -5.5049  -4.8241  -4.8177  -4.8177  -4.7375  -4.7374  -4.4683  -4.4614
    -4.4448  -4.4447  -4.1431  -4.1429  -3.9791  -3.4716  -3.4684  -3.4682
    -3.4548  -3.4547  -3.3875  -3.2896  -3.2644  -3.2643  -3.2156  -2.9600
    -2.9512  -2.9512  -2.9351  -2.5007  -2.5006  -2.4443  -2.4286  -2.4277

     the Fermi energy is    -3.0891 ev

!    total energy              =    -140.94297106 Ry
     Harris-Foulkes estimate   =    -140.94297147 Ry
     estimated scf accuracy    <       0.00000047 Ry

     The total energy is the sum of the following terms:

     one-electron contribution =    -502.78927939 Ry
     hartree contribution      =     260.13525389 Ry
     xc contribution           =     -61.32337182 Ry
     ewald contribution        =     163.11231460 Ry
     smearing contrib. (-TS)   =      -0.07788834 Ry

     convergence has been achieved in  11 iterations

     Forces acting on atoms (cartesian axes, Ry/au):

     atom    1 type  1   force =     0.00496454   -0.00169214    0.00000000
     atom    2 type  1   force =     0.01287662    0.00741576    0.00000000
     atom    3 type  1   force =     0.00017130   -0.00008399    0.00000000
     atom    4 type  1   force =    -0.00074337    0.00043173    0.00000000
     atom    5 type  1   force =    -0.00000104    0.00016755    0.00000000
     atom    6 type  1   force =     0.00165877    0.00094162    0.00000000
     atom    7 type  1   force =     0.00101204    0.00517288    0.00000000
     atom    8 type  1   force =    -0.00000519   -0.00084012    0.00000000
     atom    9 type  1   force =    -0.01281578    0.00743383    0.00000000
     atom   10 type  1   force =     0.00398313   -0.00346504    0.00000000
     atom   11 type  1   force =     0.00001852   -0.01483557    0.00000000
     atom   12 type  1   force =     0.00180210    0.00104517    0.00000000
     atom   13 type  1   force =     0.00077241   -0.00052976    0.00000000
     atom   14 type  1   force =    -0.00101647    0.00520344    0.00000000
     atom   15 type  1   force =    -0.00006924    0.00091038    0.00000000
     atom   16 type  1   force =    -0.00500457   -0.00171789    0.00000000
     atom   17 type  1   force =    -0.00084125   -0.00037365    0.00000000
     atom   18 type  1   force =    -0.00398014   -0.00349407    0.00000000
     atom   19 type  1   force =     0.00070475    0.00039883    0.00000000
     atom   20 type  1   force =    -0.00002588   -0.00120611    0.00000000
     atom   21 type  1   force =    -0.00072495   -0.00052830    0.00000000
     atom   22 type  1   force =    -0.00104330    0.00061814    0.00000000
     atom   23 type  1   force =    -0.00000143    0.00000112    0.00000000
     atom   24 type  1   force =    -0.00001055   -0.00210770    0.00000000
     atom   25 type  1   force =     0.00081815   -0.00038469    0.00000000
     atom   26 type  1   force =    -0.00013489   -0.00010175    0.00000000
     atom   27 type  1   force =    -0.00001348   -0.00189986    0.00000000
     atom   28 type  1   force =    -0.00183593    0.00108565    0.00000000
     atom   29 type  1   force =    -0.00163778    0.00095418    0.00000000
     atom   30 type  1   force =     0.00104573    0.00060610    0.00000000
     atom   31 type  1   force =     0.00007719    0.00087426    0.00000000

     Total force =     0.029384     Total SCF correction =     0.000573


     Computing stress (Cartesian axis) and pressure

          total   stress  (Ry/bohr**3)                   (kbar)     P=   -0.66
  -0.00000669   0.00000001   0.00000000         -0.98      0.00      0.00
   0.00000001  -0.00000670   0.00000000          0.00     -0.99      0.00
   0.00000000   0.00000000   0.00000001          0.00      0.00      0.00


     number of scf cycles    =   5
     number of bfgs steps    =   4

     enthalpy old            =    -140.9403543043 Ry
     enthalpy new            =    -140.9429710583 Ry

     CASE: enthalpy_new < enthalpy_old

     new trust radius        =       0.0766511789 bohr
     new conv_thr            =       0.0000010000 Ry

     new unit-cell volume =  36981.96179 a.u.^3 (  5480.16127 Ang^3 )
     density =      0.28163 g/cm^3

CELL_PARAMETERS (alat= 33.68096681)
   0.998000230   0.000005106   0.000000000
  -0.498995693   0.864291134   0.000000000
   0.000000000   0.000000000   1.122132950

ATOMIC_POSITIONS (angstrom)
Al      -0.004701181   2.576317647   0.000000000
Al       2.314890243   1.336560963   0.000000000
Al      -2.228711300   6.421955741   0.000000000
Al       0.004537499   5.132243355   0.000000000
Al      -4.446660774  10.263394065   0.000000000
Al      -2.217994965   8.989042276   0.000000000
Al      -6.664979792  14.112278538   0.000000000
Al      -4.446806514  12.842321664   0.000000000
Al       6.579178750   1.336702940   0.000000000
Al       2.213589200   6.418481974   0.000000000
Al       4.447011461   5.029460422   0.000000000
Al       0.013867705  10.277594068   0.000000000
Al       2.216645946   8.957753759   0.000000000
Al      -2.228349968  14.112219870   0.000000000
Al      -0.027879930  12.845457497   0.000000000
Al       8.898529632   2.576232299   0.000000000
Al      11.096261296   1.304051599   0.000000000
Al       6.680288160   6.418444967   0.000000000
Al       8.889259256   5.132208920   0.000000000
Al       4.446890526  10.278956802   0.000000000
Al       6.677396066   8.957796509   0.000000000
Al       2.231506845  14.116228404   0.000000000
Al       4.447020517  12.837209991   0.000000000
Al      13.340747853   2.551551868   0.000000000
Al      15.585074363   1.304021836   0.000000000
Al      11.122986016   6.421907238   0.000000000
Al      13.340562165   5.128820838   0.000000000
Al       8.880052552  10.277841437   0.000000000
Al      11.111947893   8.989124324   0.000000000
Al       6.662638256  14.116234874   0.000000000
Al       8.921672624  12.845388201   0.000000000



     Writing output data file 9al_planar_2x2_vcr.save/
     NEW-OLD atomic charge density approx. for the potential

     negative rho (up, down):  1.731E-06 0.000E+00
     extrapolated charge   92.85500, renormalised to   93.00000

     total cpu time spent up to now is     1884.6 secs

     Self-consistent Calculation

     iteration #  1     ecut=    80.00 Ry     beta= 0.40
     Davidson diagonalization with overlap
     ethr =  1.00E-06,  avg # of iterations =  8.0

     negative rho (up, down):  9.096E-07 0.000E+00

     total cpu time spent up to now is     1929.9 secs

     total energy              =    -140.94620909 Ry
     Harris-Foulkes estimate   =    -141.66583862 Ry
     estimated scf accuracy    <       0.00077043 Ry

     iteration #  2     ecut=    80.00 Ry     beta= 0.40
     Davidson diagonalization with overlap
     ethr =  8.28E-07,  avg # of iterations =  5.0

     negative rho (up, down):  8.181E-07 0.000E+00

     total cpu time spent up to now is     1964.4 secs

     total energy              =    -140.94622975 Ry
     Harris-Foulkes estimate   =    -140.94723893 Ry
     estimated scf accuracy    <       0.00747573 Ry

     iteration #  3     ecut=    80.00 Ry     beta= 0.40
     Davidson diagonalization with overlap
     c_bands:  1 eigenvalues not converged
     ethr =  8.28E-07,  avg # of iterations = 20.0

     negative rho (up, down):  5.901E-07 0.000E+00

     total cpu time spent up to now is     2000.2 secs

     total energy              =    -140.94655089 Ry
     Harris-Foulkes estimate   =    -140.94662150 Ry
     estimated scf accuracy    <       0.00031791 Ry

     iteration #  4     ecut=    80.00 Ry     beta= 0.40
     Davidson diagonalization with overlap
     ethr =  3.42E-07,  avg # of iterations =  3.0

     negative rho (up, down):  4.552E-07 0.000E+00

     total cpu time spent up to now is     2020.1 secs

     total energy              =    -140.94654637 Ry
     Harris-Foulkes estimate   =    -140.94658418 Ry
     estimated scf accuracy    <       0.00020248 Ry

     iteration #  5     ecut=    80.00 Ry     beta= 0.40
     Davidson diagonalization with overlap
     ethr =  2.18E-07,  avg # of iterations =  1.0

     negative rho (up, down):  2.327E-07 0.000E+00

     total cpu time spent up to now is     2038.3 secs

     total energy              =    -140.94654237 Ry
     Harris-Foulkes estimate   =    -140.94658950 Ry
     estimated scf accuracy    <       0.00029651 Ry

     iteration #  6     ecut=    80.00 Ry     beta= 0.40
     Davidson diagonalization with overlap
     ethr =  2.18E-07,  avg # of iterations =  1.0

     negative rho (up, down):  5.504E-08 0.000E+00

     total cpu time spent up to now is     2061.8 secs

     total energy              =    -140.94656224 Ry
     Harris-Foulkes estimate   =    -140.94656744 Ry
     estimated scf accuracy    <       0.00002846 Ry

     iteration #  7     ecut=    80.00 Ry     beta= 0.40
     Davidson diagonalization with overlap
     ethr =  3.06E-08,  avg # of iterations =  4.0

     negative rho (up, down):  4.004E-08 0.000E+00

     total cpu time spent up to now is     2084.1 secs

     total energy              =    -140.94656580 Ry
     Harris-Foulkes estimate   =    -140.94656893 Ry
     estimated scf accuracy    <       0.00001654 Ry

     iteration #  8     ecut=    80.00 Ry     beta= 0.40
     Davidson diagonalization with overlap
     ethr =  1.78E-08,  avg # of iterations =  4.0

     negative rho (up, down):  2.108E-08 0.000E+00

     total cpu time spent up to now is     2105.7 secs

     total energy              =    -140.94656667 Ry
     Harris-Foulkes estimate   =    -140.94656810 Ry
     estimated scf accuracy    <       0.00000689 Ry

     iteration #  9     ecut=    80.00 Ry     beta= 0.40
     Davidson diagonalization with overlap
     ethr =  7.41E-09,  avg # of iterations =  3.0

     total cpu time spent up to now is     2127.8 secs

     total energy              =    -140.94656697 Ry
     Harris-Foulkes estimate   =    -140.94656723 Ry
     estimated scf accuracy    <       0.00000114 Ry

     iteration # 10     ecut=    80.00 Ry     beta= 0.40
     Davidson diagonalization with overlap
     ethr =  1.22E-09,  avg # of iterations =  6.0

     total cpu time spent up to now is     2158.6 secs

     total energy              =    -140.94656653 Ry
     Harris-Foulkes estimate   =    -140.94656725 Ry
     estimated scf accuracy    <       0.00000560 Ry

     iteration # 11     ecut=    80.00 Ry     beta= 0.40
     Davidson diagonalization with overlap
     ethr =  1.22E-09,  avg # of iterations =  4.0

     total cpu time spent up to now is     2183.5 secs

     End of self-consistent calculation

          k = 0.0000 0.0000 0.0000 (448403 PWs)   bands (ev):

    -9.9602  -9.4537  -9.4513  -9.4512  -9.4118  -9.4118  -9.1303  -8.4073
    -8.4035  -8.4033  -8.3586  -8.3585  -8.3192  -8.2196  -8.2195  -7.5775
    -6.9345  -6.9343  -6.8265  -6.4774  -6.4773  -6.4450  -6.3858  -6.3857
    -5.5297  -4.8190  -4.8062  -4.8060  -4.7362  -4.7362  -4.4638  -4.4575
    -4.4472  -4.4472  -4.1563  -4.1562  -3.9807  -3.4724  -3.4723  -3.4720
    -3.4507  -3.4507  -3.3783  -3.3410  -3.2600  -3.2600  -3.2133  -2.9664
    -2.9429  -2.9428  -2.9170  -2.4917  -2.4915  -2.4506  -2.4415  -2.4411

     the Fermi energy is    -3.0891 ev

!    total energy              =    -140.94656585 Ry
     Harris-Foulkes estimate   =    -140.94656623 Ry
     estimated scf accuracy    <       0.00000054 Ry

     The total energy is the sum of the following terms:

     one-electron contribution =    -503.27370530 Ry
     hartree contribution      =     260.37142749 Ry
     xc contribution           =     -61.31662666 Ry
     ewald contribution        =     163.34871095 Ry
     smearing contrib. (-TS)   =      -0.07637233 Ry

     convergence has been achieved in  11 iterations

     Forces acting on atoms (cartesian axes, Ry/au):

     atom    1 type  1   force =     0.00882647   -0.00394252    0.00000000
     atom    2 type  1   force =     0.01292943    0.00746304    0.00000000
     atom    3 type  1   force =     0.00067615   -0.00049261    0.00000000
     atom    4 type  1   force =    -0.00186208    0.00111894    0.00000000
     atom    5 type  1   force =    -0.00004992    0.00085198    0.00000000
     atom    6 type  1   force =     0.00176757    0.00103872    0.00000000
     atom    7 type  1   force =     0.00100112    0.00960386    0.00000000
     atom    8 type  1   force =     0.00003617   -0.00217378    0.00000000
     atom    9 type  1   force =    -0.01298301    0.00741064    0.00000000
     atom   10 type  1   force =     0.00776971   -0.00574071    0.00000000
     atom   11 type  1   force =    -0.00001999   -0.01495267    0.00000000
     atom   12 type  1   force =     0.00221859    0.00134453    0.00000000
     atom   13 type  1   force =     0.00160734    0.00181801    0.00000000
     atom   14 type  1   force =    -0.00113838    0.00964649    0.00000000
     atom   15 type  1   force =     0.00243447    0.00040636    0.00000000
     atom   16 type  1   force =    -0.00878983   -0.00387990    0.00000000
     atom   17 type  1   force =     0.00074063   -0.00233336    0.00000000
     atom   18 type  1   force =    -0.00775598   -0.00570504    0.00000000
     atom   19 type  1   force =     0.00191995    0.00113991    0.00000000
     atom   20 type  1   force =     0.00002459   -0.00258833    0.00000000
     atom   21 type  1   force =    -0.00163602    0.00181147    0.00000000
     atom   22 type  1   force =    -0.00225824    0.00131619    0.00000000
     atom   23 type  1   force =     0.00000882   -0.00000573    0.00000000
     atom   24 type  1   force =    -0.00001515   -0.00253349    0.00000000
     atom   25 type  1   force =    -0.00069665   -0.00232569    0.00000000
     atom   26 type  1   force =    -0.00084348   -0.00044383    0.00000000
     atom   27 type  1   force =     0.00011619   -0.00203791    0.00000000
     atom   28 type  1   force =    -0.00220422    0.00127795    0.00000000
     atom   29 type  1   force =    -0.00173522    0.00106790    0.00000000
     atom   30 type  1   force =     0.00221368    0.00133148    0.00000000
     atom   31 type  1   force =    -0.00230267    0.00050809    0.00000000

     Total force =     0.036522     Total SCF correction =     0.000573


     Computing stress (Cartesian axis) and pressure

          total   stress  (Ry/bohr**3)                   (kbar)     P=   -0.70
  -0.00000717  -0.00000002   0.00000000         -1.06     -0.00      0.00
  -0.00000002  -0.00000719   0.00000000         -0.00     -1.06      0.00
   0.00000000   0.00000000  -0.00000000          0.00      0.00     -0.00


     number of scf cycles    =   6
     number of bfgs steps    =   5

     enthalpy old            =    -140.9429710583 Ry
     enthalpy new            =    -140.9465658538 Ry

     CASE: enthalpy_new < enthalpy_old

     new trust radius        =       0.1148873640 bohr
     new conv_thr            =       0.0000010000 Ry

     new unit-cell volume =  36894.97213 a.u.^3 (  5467.27073 Ang^3 )
     density =      0.28229 g/cm^3

CELL_PARAMETERS (alat= 33.68096681)
   0.996825991   0.000006874   0.000000000
  -0.498407043   0.863272966   0.000000000
   0.000000000   0.000000000   1.122132950

ATOMIC_POSITIONS (angstrom)
Al      -0.003278268   2.576067166   0.000000000
Al       2.364739936   1.365384930   0.000000000
Al      -2.228542799   6.415914148   0.000000000
Al       0.006007941   5.125359327   0.000000000
Al      -4.441357778  10.248410925   0.000000000
Al      -2.211966266   8.980404487   0.000000000
Al      -6.654032811  14.095443510   0.000000000
Al      -4.441538387  12.828869151   0.000000000
Al       6.518929145   1.365544557   0.000000000
Al       2.209319999   6.408393092   0.000000000
Al       4.441788647   4.962878950   0.000000000
Al       0.022021036  10.270173348   0.000000000
Al       2.211107091   8.933475272   0.000000000
Al      -2.228734631  14.095363030   0.000000000
Al      -0.041191809  12.834673990   0.000000000
Al       8.886673336   2.575954866   0.000000000
Al      11.072771063   1.311989196   0.000000000
Al       6.674106789   6.408352477   0.000000000
Al       8.877320410   5.125303096   0.000000000
Al       4.441642506  10.270540883   0.000000000
Al       6.672485351   8.933524636   0.000000000
Al       2.232078840  14.097726336   0.000000000
Al       4.441803922  12.822095485   0.000000000
Al      13.325051416   2.539130860   0.000000000
Al      15.577122059   1.311941389   0.000000000
Al      11.112446433   6.415837463   0.000000000
Al      13.324830849   5.118893411   0.000000000
Al       8.861456915  10.270472828   0.000000000
Al      11.095477398   8.980499055   0.000000000
Al       6.651672578  14.097734693   0.000000000
Al       8.924492262  12.834615049   0.000000000



     Writing output data file 9al_planar_2x2_vcr.save/
     NEW-OLD atomic charge density approx. for the potential

     negative rho (up, down):  2.658E-06 0.000E+00
     extrapolated charge   92.78091, renormalised to   93.00000

     total cpu time spent up to now is     2276.6 secs

     Self-consistent Calculation

     iteration #  1     ecut=    80.00 Ry     beta= 0.40
     Davidson diagonalization with overlap
     ethr =  1.00E-06,  avg # of iterations =  9.0

     negative rho (up, down):  1.423E-06 0.000E+00

     total cpu time spent up to now is     2325.1 secs

     total energy              =    -140.95077483 Ry
     Harris-Foulkes estimate   =    -142.04004502 Ry
     estimated scf accuracy    <       0.00170418 Ry

     iteration #  2     ecut=    80.00 Ry     beta= 0.40
     Davidson diagonalization with overlap
     ethr =  1.83E-06,  avg # of iterations =  6.0

     negative rho (up, down):  1.280E-06 0.000E+00

     total cpu time spent up to now is     2359.6 secs

     total energy              =    -140.95083000 Ry
     Harris-Foulkes estimate   =    -140.95327960 Ry
     estimated scf accuracy    <       0.01815631 Ry

     iteration #  3     ecut=    80.00 Ry     beta= 0.40
     Davidson diagonalization with overlap
     ethr =  1.83E-06,  avg # of iterations =  4.0

     negative rho (up, down):  9.226E-07 0.000E+00

     total cpu time spent up to now is     2387.2 secs

     total energy              =    -140.95190822 Ry
     Harris-Foulkes estimate   =    -140.95203728 Ry
     estimated scf accuracy    <       0.00057964 Ry

     iteration #  4     ecut=    80.00 Ry     beta= 0.40
     Davidson diagonalization with overlap
     ethr =  6.23E-07,  avg # of iterations =  2.0

     negative rho (up, down):  5.833E-07 0.000E+00

     total cpu time spent up to now is     2412.9 secs

     total energy              =    -140.95191582 Ry
     Harris-Foulkes estimate   =    -140.95196493 Ry
     estimated scf accuracy    <       0.00028459 Ry

     iteration #  5     ecut=    80.00 Ry     beta= 0.40
     Davidson diagonalization with overlap
     ethr =  3.06E-07,  avg # of iterations =  4.0

     negative rho (up, down):  3.421E-07 0.000E+00

     total cpu time spent up to now is     2432.4 secs

     total energy              =    -140.95188602 Ry
     Harris-Foulkes estimate   =    -140.95196519 Ry
     estimated scf accuracy    <       0.00040495 Ry

     iteration #  6     ecut=    80.00 Ry     beta= 0.40
     Davidson diagonalization with overlap
     ethr =  3.06E-07,  avg # of iterations =  4.0

     negative rho (up, down):  7.138E-08 0.000E+00

     total cpu time spent up to now is     2453.8 secs

     total energy              =    -140.95192308 Ry
     Harris-Foulkes estimate   =    -140.95194682 Ry
     estimated scf accuracy    <       0.00015505 Ry

     iteration #  7     ecut=    80.00 Ry     beta= 0.40
     Davidson diagonalization with overlap
     ethr =  1.67E-07,  avg # of iterations =  1.0

     negative rho (up, down):  5.456E-08 0.000E+00

     total cpu time spent up to now is     2473.9 secs

     total energy              =    -140.95193601 Ry
     Harris-Foulkes estimate   =    -140.95193859 Ry
     estimated scf accuracy    <       0.00001462 Ry

     iteration #  8     ecut=    80.00 Ry     beta= 0.40
     Davidson diagonalization with overlap
     ethr =  1.57E-08,  avg # of iterations =  5.0

     negative rho (up, down):  2.585E-08 0.000E+00

     total cpu time spent up to now is     2500.9 secs

     total energy              =    -140.95193980 Ry
     Harris-Foulkes estimate   =    -140.95194285 Ry
     estimated scf accuracy    <       0.00001758 Ry

     iteration #  9     ecut=    80.00 Ry     beta= 0.40
     Davidson diagonalization with overlap
     ethr =  1.57E-08,  avg # of iterations =  2.0

     total cpu time spent up to now is     2522.0 secs

     total energy              =    -140.95194019 Ry
     Harris-Foulkes estimate   =    -140.95194106 Ry
     estimated scf accuracy    <       0.00000487 Ry

     iteration # 10     ecut=    80.00 Ry     beta= 0.40
     Davidson diagonalization with overlap
     ethr =  5.24E-09,  avg # of iterations =  4.0

     total cpu time spent up to now is     2546.6 secs

     total energy              =    -140.95194030 Ry
     Harris-Foulkes estimate   =    -140.95194126 Ry
     estimated scf accuracy    <       0.00000787 Ry

     iteration # 11     ecut=    80.00 Ry     beta= 0.40
     Davidson diagonalization with overlap
     ethr =  5.24E-09,  avg # of iterations =  1.0

     total cpu time spent up to now is     2567.5 secs

     total energy              =    -140.95194046 Ry
     Harris-Foulkes estimate   =    -140.95194077 Ry
     estimated scf accuracy    <       0.00000166 Ry

     iteration # 12     ecut=    80.00 Ry     beta= 0.40
     Davidson diagonalization with overlap
     ethr =  1.78E-09,  avg # of iterations =  4.0

     total cpu time spent up to now is     2592.8 secs

     End of self-consistent calculation

          k = 0.0000 0.0000 0.0000 (448403 PWs)   bands (ev):

    -9.9648  -9.4616  -9.4614  -9.4568  -9.4053  -9.4051  -9.1260  -8.4190
    -8.4032  -8.4030  -8.3513  -8.3513  -8.3264  -8.1935  -8.1933  -7.5796
    -6.9368  -6.9365  -6.8296  -6.4761  -6.4760  -6.4253  -6.3901  -6.3900
    -5.5680  -4.8090  -4.7919  -4.7916  -4.7300  -4.7299  -4.4569  -4.4514
    -4.4490  -4.4490  -4.1759  -4.1758  -3.9824  -3.4777  -3.4775  -3.4723
    -3.4439  -3.4438  -3.4231  -3.3636  -3.2520  -3.2519  -3.2122  -2.9754
    -2.9304  -2.9302  -2.8858  -2.4777  -2.4773  -2.4580  -2.4390  -2.4389

     the Fermi energy is    -3.0875 ev

!    total energy              =    -140.95194034 Ry
     Harris-Foulkes estimate   =    -140.95194075 Ry
     estimated scf accuracy    <       0.00000042 Ry

     The total energy is the sum of the following terms:

     one-electron contribution =    -504.03501699 Ry
     hartree contribution      =     260.74603874 Ry
     xc contribution           =     -61.30922105 Ry
     ewald contribution        =     163.71872468 Ry
     smearing contrib. (-TS)   =      -0.07246572 Ry

     convergence has been achieved in  12 iterations

     Forces acting on atoms (cartesian axes, Ry/au):

     atom    1 type  1   force =     0.01403447   -0.00630755    0.00000000
     atom    2 type  1   force =     0.01337576    0.00770794    0.00000000
     atom    3 type  1   force =     0.00133024   -0.00091057    0.00000000
     atom    4 type  1   force =    -0.00278574    0.00166615    0.00000000
     atom    5 type  1   force =    -0.00006150    0.00162372    0.00000000
     atom    6 type  1   force =     0.00257274    0.00151764    0.00000000
     atom    7 type  1   force =     0.00157173    0.01529929    0.00000000
     atom    8 type  1   force =     0.00004124   -0.00323616    0.00000000
     atom    9 type  1   force =    -0.01340932    0.00764882    0.00000000
     atom   10 type  1   force =     0.01242716   -0.00911578    0.00000000
     atom   11 type  1   force =    -0.00001853   -0.01545443    0.00000000
     atom   12 type  1   force =     0.00197514    0.00121350    0.00000000
     atom   13 type  1   force =     0.00308196    0.00494230    0.00000000
     atom   14 type  1   force =    -0.00173451    0.01538362    0.00000000
     atom   15 type  1   force =     0.00586988    0.00010583    0.00000000
     atom   16 type  1   force =    -0.01404658   -0.00624600    0.00000000
     atom   17 type  1   force =     0.00269941   -0.00516721    0.00000000
     atom   18 type  1   force =    -0.01242159   -0.00907314    0.00000000
     atom   19 type  1   force =     0.00287086    0.00168844    0.00000000
     atom   20 type  1   force =     0.00002778   -0.00477584    0.00000000
     atom   21 type  1   force =    -0.00309613    0.00494261    0.00000000
     atom   22 type  1   force =    -0.00413498    0.00241632    0.00000000
     atom   23 type  1   force =     0.00002089    0.00001198    0.00000000
     atom   24 type  1   force =    -0.00002040   -0.00222657    0.00000000
     atom   25 type  1   force =    -0.00263460   -0.00514800    0.00000000
     atom   26 type  1   force =    -0.00153343   -0.00083598    0.00000000
     atom   27 type  1   force =     0.00013129   -0.00297067    0.00000000
     atom   28 type  1   force =    -0.00196466    0.00113794    0.00000000
     atom   29 type  1   force =    -0.00253625    0.00152715    0.00000000
     atom   30 type  1   force =     0.00407001    0.00242648    0.00000000
     atom   31 type  1   force =    -0.00570232    0.00020818    0.00000000

     Total force =     0.049919     Total SCF correction =     0.000497


     Computing stress (Cartesian axis) and pressure

          total   stress  (Ry/bohr**3)                   (kbar)     P=   -0.77
  -0.00000785  -0.00000004   0.00000000         -1.16     -0.01      0.00
  -0.00000004  -0.00000787   0.00000000         -0.01     -1.16      0.00
   0.00000000   0.00000000   0.00000001          0.00      0.00      0.00


     number of scf cycles    =   7
     number of bfgs steps    =   6

     enthalpy old            =    -140.9465658538 Ry
     enthalpy new            =    -140.9519403427 Ry

     CASE: enthalpy_new < enthalpy_old

     new trust radius        =       0.1721285301 bohr
     new conv_thr            =       0.0000010000 Ry

     new unit-cell volume =  36764.47392 a.u.^3 (  5447.93289 Ang^3 )
     density =      0.28330 g/cm^3

CELL_PARAMETERS (alat= 33.68096681)
   0.995061716   0.000009440   0.000000000
  -0.497522683   0.861743461   0.000000000
   0.000000000   0.000000000   1.122132950

ATOMIC_POSITIONS (angstrom)
Al       0.000272174   2.575160191   0.000000000
Al       2.439276867   1.408480036   0.000000000
Al      -2.228130076   6.406744059   0.000000000
Al       0.008089730   5.115091353   0.000000000
[...]
     atom   29 type  1   force =     0.00000652   -0.00000205    0.00000000
     atom   30 type  1   force =    -0.00000300   -0.00000275    0.00000000
     atom   31 type  1   force =     0.00001161   -0.00000283    0.00000000

     Total force =     0.000047     Total SCF correction =     0.000036
     SCF correction compared to forces is large: reduce conv_thr to get better values


     Computing stress (Cartesian axis) and pressure

          total   stress  (Ry/bohr**3)                   (kbar)     P=   -0.00
  -0.00000001   0.00000000   0.00000000         -0.00      0.00      0.00
   0.00000000   0.00000001   0.00000000          0.00      0.00      0.00
   0.00000000   0.00000000  -0.00000001          0.00      0.00     -0.00


     bfgs converged in 227 scf cycles and 224 bfgs steps
     (criteria: energy <  1.0E-05 Ry, force <  1.0E-04Ry/Bohr, cell <  5.0E-05kbar)

     End of BFGS Geometry Optimization

     Final enthalpy =    -142.2701674914 Ry
Begin final coordinates
     new unit-cell volume =  26092.82324 a.u.^3 (  3866.55743 Ang^3 )
     density =      0.39916 g/cm^3

CELL_PARAMETERS (alat= 33.68096681)
   0.838295874   0.000785996   0.000000000
  -0.419830573   0.725588241   0.000000000
   0.000000000   0.000000000   1.122132950

ATOMIC_POSITIONS (angstrom)
Al       1.563808559   2.853738448   0.000000000
Al       2.530090062   0.350309608   0.000000000
Al      -2.053836461   5.772133633   0.000000000
Al       0.597416610   5.357247701   0.000000000
Al      -3.020129682   8.275665881   0.000000000
Al      -0.368948898   7.860777471   0.000000000
Al      -6.637596166  11.193963155   0.000000000
Al      -5.671320413   8.690541333   0.000000000
Al       5.181326846  -0.064549152   0.000000000
Al       3.248666640   4.942314135   0.000000000
Al       4.215080453   2.438885817   0.000000000
Al       1.316008199   9.949261142   0.000000000
Al       2.282295594   7.445777814   0.000000000
Al      -3.986409431  10.779174782   0.000000000
Al      -1.335186110  10.364263065   0.000000000
Al       6.866381414   2.023939769   0.000000000
Al       9.517588887   1.608958235   0.000000000
Al       5.899976889   4.527395269   0.000000000
Al       8.551272198   4.112485253   0.000000000
Al       3.967295966   9.534369103   0.000000000
Al       4.933559382   7.030875415   0.000000000
Al       0.349840092  12.452761671   0.000000000
Al       3.001084701  12.037792164   0.000000000
Al      12.168817288   1.194108688   0.000000000
Al      13.853755829   3.282664083   0.000000000
Al      10.236103788   6.201086140   0.000000000
Al      11.202505069   3.697540349   0.000000000
Al       5.652321670  11.622954549   0.000000000
Al       7.584827539   6.615980540   0.000000000
Al       7.337297231  13.711486297   0.000000000
Al       6.618491257   9.119447561   0.000000000
End final coordinates



     Writing output data file 9al_planar_2x2_vcr.save/

     A final scf calculation at the relaxed structure.
     The G-vectors are recalculated for the final unit cell
     Results may differ from those at the preceding step.
 
     Parallelization info
     --------------------
     sticks:   dense  smooth     PW     G-vecs:    dense   smooth      PW
     Min        2198    2198    550               315306   315306   39398
     Max        2199    2199    551               315315   315315   39403
     Sum       17587   17587   4405              2522481  2522481  315207
 


     bravais-lattice index     =            4
     lattice parameter (alat)  =      33.6810  a.u.
     unit-cell volume          =   26092.8232 (a.u.)^3
     number of atoms/cell      =           31
     number of atomic types    =            1
     number of electrons       =        93.00
     number of Kohn-Sham states=           56
     kinetic-energy cutoff     =      80.0000  Ry
     charge density cutoff     =     320.0000  Ry
     convergence threshold     =      1.0E-08
     mixing beta               =       0.4000
     number of iterations used =            8  plain     mixing
     Exchange-correlation      = PBE ( 1  4  3  4 0 0)

     celldm(1)=  33.680967  celldm(2)=   0.000000  celldm(3)=   1.122133
     celldm(4)=   0.000000  celldm(5)=   0.000000  celldm(6)=   0.000000

     crystal axes: (cart. coord. in units of alat)
               a(1) = (   0.838296   0.000786   0.000000 )  
               a(2) = (  -0.419831   0.725588   0.000000 )  
               a(3) = (   0.000000   0.000000   1.122133 )  

     reciprocal axes: (cart. coord. in units 2 pi/alat)
               b(1) = (  1.192249  0.689844  0.000000 )  
               b(2) = ( -0.001292  1.377445  0.000000 )  
               b(3) = (  0.000000  0.000000  0.891160 )  


     PseudoPot. # 1 for Al read from file:
     ./Al.upf
     MD5 check sum: 4974d48a734c9d7d1eb6780a1419d19d
     Pseudo is Norm-conserving + core correction, Zval =  3.0
     Generated using ONCVPSP code by D. R. Hamann
     Using radial grid of 1876 points,  6 beta functions with: 
                l(1) =   0
                l(2) =   0
                l(3) =   1
                l(4) =   1
                l(5) =   2
                l(6) =   2

     atomic species   valence    mass     pseudopotential
        Al             3.00    29.98200     Al( 1.00)

      2 Sym. Ops. (no inversion) found



   Cartesian axes

     site n.     atom                  positions (alat units)
         1           Al  tau(   1) = (   0.0877401   0.1601137   0.0000000  )
         2           Al  tau(   2) = (   0.1419549   0.0196547   0.0000000  )
         3           Al  tau(   3) = (  -0.1152339   0.3238551   0.0000000  )
         4           Al  tau(   4) = (   0.0335190   0.3005772   0.0000000  )
         5           Al  tau(   5) = (  -0.1694494   0.4643199   0.0000000  )
         6           Al  tau(   6) = (  -0.0207005   0.4410419   0.0000000  )
         7           Al  tau(   7) = (  -0.3724133   0.6280557   0.0000000  )
         8           Al  tau(   8) = (  -0.3181988   0.4875971   0.0000000  )
         9           Al  tau(   9) = (   0.2907069  -0.0036216   0.0000000  )
        10           Al  tau(  10) = (   0.1822718   0.2772967   0.0000000  )
        11           Al  tau(  11) = (   0.2364940   0.1368377   0.0000000  )
        12           Al  tau(  12) = (   0.0738368   0.5582197   0.0000000  )
        13           Al  tau(  13) = (   0.1280520   0.4177576   0.0000000  )
        14           Al  tau(  14) = (  -0.2236641   0.6047834   0.0000000  )
        15           Al  tau(  15) = (  -0.0749128   0.5815041   0.0000000  )
        16           Al  tau(  16) = (   0.3852496   0.1135565   0.0000000  )
        17           Al  tau(  17) = (   0.5340000   0.0902733   0.0000000  )
        18           Al  tau(  18) = (   0.3310279   0.2540170   0.0000000  )
        19           Al  tau(  19) = (   0.4797832   0.2307378   0.0000000  )
        20           Al  tau(  20) = (   0.2225917   0.5349415   0.0000000  )
        21           Al  tau(  21) = (   0.2768055   0.3944788   0.0000000  )
        22           Al  tau(  22) = (   0.0196284   0.6986827   0.0000000  )
        23           Al  tau(  23) = (   0.1683808   0.6754002   0.0000000  )
        24           Al  tau(  24) = (   0.6827515   0.0669974   0.0000000  )
        25           Al  tau(  25) = (   0.7772878   0.1841793   0.0000000  )
        26           Al  tau(  26) = (   0.5743135   0.3479222   0.0000000  )
        27           Al  tau(  27) = (   0.6285350   0.2074566   0.0000000  )
        28           Al  tau(  28) = (   0.3171328   0.6521250   0.0000000  )
        29           Al  tau(  29) = (   0.4255592   0.3712005   0.0000000  )
        30           Al  tau(  30) = (   0.4116711   0.7693055   0.0000000  )
        31           Al  tau(  31) = (   0.3713414   0.5116616   0.0000000  )

     number of k points=     1  Methfessel-Paxton smearing, width (Ry)=  0.0500
                       cart. coord. in units 2pi/alat
        k(    1) = (   0.0000000   0.0000000   0.0000000), wk =   2.0000000

     Dense  grid:  2522481 G-vectors     FFT dimensions: ( 162, 162, 216)

     Estimated max dynamical RAM per process >     839.96 MB

     Estimated total dynamical RAM >       6.56 GB

     Initial potential from superposition of free atoms

     starting charge   92.92414, renormalised to   93.00000

     negative rho (up, down):  7.270E-05 0.000E+00
     Starting wfcs are  124 randomized atomic wfcs

     total cpu time spent up to now is    84760.7 secs

     Self-consistent Calculation

     iteration #  1     ecut=    80.00 Ry     beta= 0.40
     Davidson diagonalization with overlap
     ethr =  1.00E-06,  avg # of iterations =  9.0

     negative rho (up, down):  1.170E-05 0.000E+00

     total cpu time spent up to now is    84812.6 secs

     total energy              =    -142.21845733 Ry
     Harris-Foulkes estimate   =    -142.58378637 Ry
     estimated scf accuracy    <       1.01227165 Ry

     iteration #  2     ecut=    80.00 Ry     beta= 0.40
     Davidson diagonalization with overlap
     ethr =  1.09E-03,  avg # of iterations =  1.0

     negative rho (up, down):  3.416E-06 0.000E+00

     total cpu time spent up to now is    84829.4 secs

     total energy              =    -142.25980529 Ry
     Harris-Foulkes estimate   =    -142.29576213 Ry
     estimated scf accuracy    <       0.10989852 Ry

     iteration #  3     ecut=    80.00 Ry     beta= 0.40
     Davidson diagonalization with overlap
     ethr =  1.18E-04,  avg # of iterations =  1.0

     negative rho (up, down):  2.353E-07 0.000E+00

     total cpu time spent up to now is    84844.8 secs

     total energy              =    -142.26910737 Ry
     Harris-Foulkes estimate   =    -142.27099521 Ry
     estimated scf accuracy    <       0.00857136 Ry

     iteration #  4     ecut=    80.00 Ry     beta= 0.40
     Davidson diagonalization with overlap
     ethr =  9.22E-06,  avg # of iterations =  2.0

     negative rho (up, down):  9.656E-08 0.000E+00

     total cpu time spent up to now is    84861.9 secs

     total energy              =    -142.26975278 Ry
     Harris-Foulkes estimate   =    -142.26982848 Ry
     estimated scf accuracy    <       0.00020685 Ry

     iteration #  5     ecut=    80.00 Ry     beta= 0.40
     Davidson diagonalization with overlap
     ethr =  2.22E-07,  avg # of iterations =  5.0

     negative rho (up, down):  4.699E-08 0.000E+00

     total cpu time spent up to now is    84886.5 secs

     total energy              =    -142.26987216 Ry
     Harris-Foulkes estimate   =    -142.26990109 Ry
     estimated scf accuracy    <       0.00012009 Ry

     iteration #  6     ecut=    80.00 Ry     beta= 0.40
     Davidson diagonalization with overlap
     ethr =  1.29E-07,  avg # of iterations =  4.0

     negative rho (up, down):  2.781E-08 0.000E+00

     total cpu time spent up to now is    84904.9 secs

     total energy              =    -142.26988161 Ry
     Harris-Foulkes estimate   =    -142.26988364 Ry
     estimated scf accuracy    <       0.00001366 Ry

     iteration #  7     ecut=    80.00 Ry     beta= 0.40
     Davidson diagonalization with overlap
     ethr =  1.47E-08,  avg # of iterations =  5.0

     total cpu time spent up to now is    84924.2 secs

     total energy              =    -142.26988417 Ry
     Harris-Foulkes estimate   =    -142.26988400 Ry
     estimated scf accuracy    <       0.00000448 Ry

     iteration #  8     ecut=    80.00 Ry     beta= 0.40
     Davidson diagonalization with overlap
     ethr =  4.82E-09,  avg # of iterations =  6.0

     total cpu time spent up to now is    84946.6 secs

     total energy              =    -142.26988363 Ry
     Harris-Foulkes estimate   =    -142.26988678 Ry
     estimated scf accuracy    <       0.00001347 Ry

     iteration #  9     ecut=    80.00 Ry     beta= 0.40
     Davidson diagonalization with overlap
     ethr =  4.82E-09,  avg # of iterations =  4.0

     total cpu time spent up to now is    84963.3 secs

     total energy              =    -142.26988390 Ry
     Harris-Foulkes estimate   =    -142.26988436 Ry
     estimated scf accuracy    <       0.00000175 Ry

     iteration # 10     ecut=    80.00 Ry     beta= 0.40
     Davidson diagonalization with overlap
     ethr =  1.88E-09,  avg # of iterations =  4.0

     total cpu time spent up to now is    84978.9 secs

     total energy              =    -142.26988395 Ry
     Harris-Foulkes estimate   =    -142.26988403 Ry
     estimated scf accuracy    <       0.00000026 Ry

     iteration # 11     ecut=    80.00 Ry     beta= 0.40
     Davidson diagonalization with overlap
     ethr =  2.78E-10,  avg # of iterations =  5.0

     total cpu time spent up to now is    85006.1 secs

     total energy              =    -142.26988402 Ry
     Harris-Foulkes estimate   =    -142.26988403 Ry
     estimated scf accuracy    <       0.00000018 Ry

     iteration # 12     ecut=    80.00 Ry     beta= 0.40
     Davidson diagonalization with overlap
     ethr =  1.96E-10,  avg # of iterations =  1.0

     total cpu time spent up to now is    85019.7 secs

     total energy              =    -142.26988400 Ry
     Harris-Foulkes estimate   =    -142.26988402 Ry
     estimated scf accuracy    <       0.00000013 Ry

     iteration # 13     ecut=    80.00 Ry     beta= 0.40
     Davidson diagonalization with overlap
     ethr =  1.36E-10,  avg # of iterations =  3.0

     total cpu time spent up to now is    85035.6 secs

     End of self-consistent calculation

          k = 0.0000 0.0000 0.0000 (315207 PWs)   bands (ev):

   -11.6236 -10.7478 -10.7478 -10.7477 -10.7477 -10.7477 -10.7477  -9.0217
    -9.0216  -9.0216  -9.0216  -9.0216  -9.0216  -8.1738  -8.1738  -8.1738
    -8.1737  -8.1737  -8.1737  -5.7782  -5.7781  -5.7781  -5.7781  -5.7781
    -5.7781  -5.7076  -5.7076  -5.7075  -5.7075  -5.7075  -5.7075  -4.8691
    -4.0234  -4.0234  -4.0233  -4.0233  -4.0233  -4.0233  -3.7523  -3.7523
    -3.7522  -3.7522  -3.7521  -3.7521  -2.3346  -2.3346  -2.3345  -2.3345
    -2.3345  -2.3345  -1.8112  -1.8112  -1.8111  -1.8111  -1.8111  -1.8110

     the Fermi energy is    -2.4052 ev

!    total energy              =    -142.26988401 Ry
     Harris-Foulkes estimate   =    -142.26988401 Ry
     estimated scf accuracy    <          2.8E-09 Ry

     The total energy is the sum of the following terms:

     one-electron contribution =    -702.58136827 Ry
     hartree contribution      =     360.19373785 Ry
     xc contribution           =     -63.84992863 Ry
     ewald contribution        =     264.01434130 Ry
     smearing contrib. (-TS)   =      -0.04666627 Ry

     convergence has been achieved in  13 iterations

     Forces acting on atoms (cartesian axes, Ry/au):

     atom    1 type  1   force =     0.00000365    0.00000819    0.00000000
     atom    2 type  1   force =     0.00000388   -0.00000220    0.00000000
     atom    3 type  1   force =     0.00001262    0.00000548    0.00000000
     atom    4 type  1   force =    -0.00000030    0.00000390    0.00000000
     atom    5 type  1   force =     0.00000374   -0.00000014    0.00000000
     atom    6 type  1   force =     0.00000513   -0.00001360    0.00000000
     atom    7 type  1   force =    -0.00000315    0.00000849    0.00000000
     atom    8 type  1   force =    -0.00000916   -0.00000412    0.00000000
     atom    9 type  1   force =     0.00000130   -0.00000717    0.00000000
     atom   10 type  1   force =     0.00000605    0.00000324    0.00000000
     atom   11 type  1   force =    -0.00000301   -0.00000256    0.00000000
     atom   12 type  1   force =     0.00001419    0.00000492    0.00000000
     atom   13 type  1   force =     0.00000599    0.00000818    0.00000000
     atom   14 type  1   force =     0.00000982   -0.00000624    0.00000000
     atom   15 type  1   force =    -0.00000120   -0.00000228    0.00000000
     atom   16 type  1   force =    -0.00001030    0.00000248    0.00000000
     atom   17 type  1   force =    -0.00000169    0.00000647    0.00000000
     atom   18 type  1   force =     0.00000129    0.00000648    0.00000000
     atom   19 type  1   force =    -0.00000422    0.00000416    0.00000000
     atom   20 type  1   force =    -0.00000635   -0.00000492    0.00000000
     atom   21 type  1   force =     0.00000383   -0.00000117    0.00000000
     atom   22 type  1   force =     0.00000285   -0.00000178    0.00000000
     atom   23 type  1   force =    -0.00000342    0.00000477    0.00000000
     atom   24 type  1   force =    -0.00000804   -0.00000704    0.00000000
     atom   25 type  1   force =    -0.00001318    0.00000406    0.00000000
     atom   26 type  1   force =    -0.00000517   -0.00000760    0.00000000
     atom   27 type  1   force =    -0.00000904    0.00000679    0.00000000
     atom   28 type  1   force =    -0.00000761   -0.00000809    0.00000000
     atom   29 type  1   force =     0.00000584   -0.00000290    0.00000000
     atom   30 type  1   force =    -0.00000373   -0.00000175    0.00000000
     atom   31 type  1   force =     0.00000937   -0.00000403    0.00000000

     Total force =     0.000050     Total SCF correction =     0.000050
     SCF correction compared to forces is large: reduce conv_thr to get better values


     Computing stress (Cartesian axis) and pressure

          total   stress  (Ry/bohr**3)                   (kbar)     P=    0.00
   0.00000003   0.00000000   0.00000000          0.00      0.00      0.00
   0.00000000   0.00000005   0.00000000          0.00      0.01      0.00
   0.00000000   0.00000000  -0.00000002          0.00      0.00     -0.00


     Writing output data file 9al_planar_2x2_vcr.save/
 
     init_run     :     50.84s CPU     54.44s WALL (       2 calls)
     electrons    :  56323.02s CPU  63736.84s WALL (     228 calls)
     update_pot   :   5857.19s CPU   5914.13s WALL (     226 calls)
     forces       :   4399.53s CPU   4495.09s WALL (     228 calls)
     stress       :  10534.74s CPU  10750.11s WALL (     228 calls)

     Called by init_run:
     wfcinit      :     22.95s CPU     26.11s WALL (       2 calls)
     potinit      :      9.90s CPU     10.10s WALL (       2 calls)
     hinit0       :     15.06s CPU     15.20s WALL (       2 calls)

     Called by electrons:
     c_bands      :  48195.87s CPU  54206.15s WALL (    2162 calls)
     sum_band     :   5379.46s CPU   6299.74s WALL (    2162 calls)
     v_of_rho     :   2430.38s CPU   2721.61s WALL (    2348 calls)
     mix_rho      :    405.93s CPU    567.57s WALL (    2162 calls)

     Called by c_bands:
     init_us_2    :    500.68s CPU    505.20s WALL (    4326 calls)
     cegterg      :  41703.25s CPU  47683.21s WALL (    2163 calls)

     Called by sum_band:

     Called by *egterg:
     h_psi        :  35288.08s CPU  41078.34s WALL (   13779 calls)
     g_psi        :    160.82s CPU    165.75s WALL (   11614 calls)
     cdiaghg      :    122.10s CPU    124.73s WALL (   13508 calls)

     Called by h_psi:
     h_psi:pot    :  35231.21s CPU  40929.81s WALL (   13779 calls)
     h_psi:calbec :   6186.14s CPU   6221.07s WALL (   13779 calls)
     vloc_psi     :  23119.56s CPU  28755.80s WALL (   13779 calls)
     add_vuspsi   :   5925.34s CPU   5952.82s WALL (   13779 calls)

     General routines
     calbec       :   7161.99s CPU   7202.67s WALL (   14919 calls)
     fft          :   1895.10s CPU   2136.34s WALL (   29448 calls)
     ffts         :    145.94s CPU    162.96s WALL (    2162 calls)
     fftw         :  24972.54s CPU  31323.39s WALL (  854106 calls)
 
     Parallel routines
     fft_scatt_xy :   3489.19s CPU   4774.28s WALL (  885716 calls)
     fft_scatt_yz :  12430.64s CPU  13768.51s WALL (  885716 calls)
 
     PWSCF        :    21h27m CPU       27h23m WALL

      37h
 
   This run was terminated on:  21: 7:25  26Nov2020            

=------------------------------------------------------------------------------=
   JOB DONE.
=------------------------------------------------------------------------------=
