
     Program PWSCF v.6.3MaX starts on 25Nov2020 at 19:14: 2 

     This program is part of the open-source Quantum ESPRESSO suite
     for quantum simulation of materials; please cite
         "P. Giannozzi et al., J. Phys.:Condens. Matter 21 395502 (2009);
         "P. Giannozzi et al., J. Phys.:Condens. Matter 29 465901 (2017);
          URL http://www.quantum-espresso.org", 
     in publications or presentations arising from this work. More details at
     http://www.quantum-espresso.org/quote

     Parallel version (MPI), running on     8 processors

     MPI processes distributed on     5 nodes
     R & G space division:  proc/nbgrp/npool/nimage =       8
     Waiting for input...
     Reading input from standard input

     Current dimensions of program PWSCF are:
     Max number of different atomic species (ntypx) = 10
     Max number of k-points (npk) =  40000
     Max angular momentum in pseudopotentials (lmaxx) =  3

     Subspace diagonalization in iterative solution of the eigenvalue problem:
     a serial algorithm will be used

 
     Parallelization info
     --------------------
     sticks:   dense  smooth     PW     G-vecs:    dense   smooth      PW
     Min        3123    3123    778               448599   448599   56048
     Max        3124    3124    779               448604   448604   56052
     Sum       24985   24985   6229              3588803  3588803  448403
 


     bravais-lattice index     =            4
     lattice parameter (alat)  =      33.6810  a.u.
     unit-cell volume          =   37130.3117 (a.u.)^3
     number of atoms/cell      =           31
     number of atomic types    =            1
     number of electrons       =        93.00
     number of Kohn-Sham states=           56
     kinetic-energy cutoff     =      80.0000  Ry
     charge density cutoff     =     320.0000  Ry
     convergence threshold     =      1.0E-06
     mixing beta               =       0.4000
     number of iterations used =            8  plain     mixing
     Exchange-correlation      = PBE ( 1  4  3  4 0 0)
     nstep                     =          300


     celldm(1)=  33.680967  celldm(2)=   0.000000  celldm(3)=   1.122133
     celldm(4)=   0.000000  celldm(5)=   0.000000  celldm(6)=   0.000000

     crystal axes: (cart. coord. in units of alat)
               a(1) = (   1.000000   0.000000   0.000000 )  
               a(2) = (  -0.500000   0.866025   0.000000 )  
               a(3) = (   0.000000   0.000000   1.122133 )  

     reciprocal axes: (cart. coord. in units 2 pi/alat)
               b(1) = (  1.000000  0.577350  0.000000 )  
               b(2) = (  0.000000  1.154701  0.000000 )  
               b(3) = (  0.000000  0.000000  0.891160 )  


     PseudoPot. # 1 for Al read from file:
     ./Al.upf
     MD5 check sum: 4974d48a734c9d7d1eb6780a1419d19d
     Pseudo is Norm-conserving + core correction, Zval =  3.0
     Generated using ONCVPSP code by D. R. Hamann
     Using radial grid of 1876 points,  6 beta functions with: 
                l(1) =   0
                l(2) =   0
                l(3) =   1
                l(4) =   1
                l(5) =   2
                l(6) =   2

     atomic species   valence    mass     pseudopotential
        Al             3.00    29.98200     Al( 1.00)

      2 Sym. Ops. (no inversion) found



   Cartesian axes

     site n.     atom                  positions (alat units)
         1           Al  tau(   1) = (  -0.0000000   0.1443393   0.0000000  )
         2           Al  tau(   2) = (   0.1250015   0.0721696   0.0000000  )
         3           Al  tau(   3) = (   0.0000018   0.2886775   0.0000000  )
         4           Al  tau(   4) = (  -0.2499994   0.5773550   0.0000000  )
         5           Al  tau(   5) = (  -0.1249979   0.5051854   0.0000000  )
         6           Al  tau(   6) = (  -0.3749991   0.7938629   0.0000000  )
         7           Al  tau(   7) = (  -0.2499976   0.7216932   0.0000000  )
         8           Al  tau(   8) = (   0.2500011   0.1443403   0.0000000  )
         9           Al  tau(   9) = (   0.3750027   0.0721706   0.0000000  )
        10           Al  tau(  10) = (   0.1250014   0.3608482   0.0000000  )
        11           Al  tau(  11) = (   0.2500030   0.2886785   0.0000000  )
        12           Al  tau(  12) = (   0.0000017   0.5773560   0.0000000  )
        13           Al  tau(  13) = (   0.1250033   0.5051864   0.0000000  )
        14           Al  tau(  14) = (  -0.1249980   0.7938639   0.0000000  )
        15           Al  tau(  15) = (   0.0000036   0.7216942   0.0000000  )
        16           Al  tau(  16) = (   0.5000023   0.1443413   0.0000000  )
        17           Al  tau(  17) = (   0.6250038   0.0721717   0.0000000  )
        18           Al  tau(  18) = (   0.3750026   0.3608492   0.0000000  )
        19           Al  tau(  19) = (   0.5000041   0.2886795   0.0000000  )
        20           Al  tau(  20) = (   0.2500029   0.5773571   0.0000000  )
        21           Al  tau(  21) = (   0.3750044   0.5051874   0.0000000  )
        22           Al  tau(  22) = (   0.1250032   0.7938649   0.0000000  )
        23           Al  tau(  23) = (   0.2500047   0.7216953   0.0000000  )
        24           Al  tau(  24) = (   0.7500035   0.1443423   0.0000000  )
        25           Al  tau(  25) = (   0.8750050   0.0721727   0.0000000  )
        26           Al  tau(  26) = (   0.6250038   0.3608502   0.0000000  )
        27           Al  tau(  27) = (   0.7500053   0.2886805   0.0000000  )
        28           Al  tau(  28) = (   0.5000041   0.5773581   0.0000000  )
        29           Al  tau(  29) = (   0.6250056   0.5051884   0.0000000  )
        30           Al  tau(  30) = (   0.3750044   0.7938660   0.0000000  )
        31           Al  tau(  31) = (   0.5000059   0.7216963   0.0000000  )

     number of k points=     1  Methfessel-Paxton smearing, width (Ry)=  0.0500
                       cart. coord. in units 2pi/alat
        k(    1) = (   0.0000000   0.0000000   0.0000000), wk =   2.0000000

     Dense  grid:  3588803 G-vectors     FFT dimensions: ( 192, 192, 216)

     Estimated max dynamical RAM per process >       1.15 GB

     Estimated total dynamical RAM >       9.23 GB

     Initial potential from superposition of free atoms

     starting charge   92.92414, renormalised to   93.00000

     negative rho (up, down):  9.278E-05 0.000E+00
     Starting wfcs are  124 randomized atomic wfcs

     total cpu time spent up to now is       36.2 secs

     Self-consistent Calculation

     iteration #  1     ecut=    80.00 Ry     beta= 0.40
     Davidson diagonalization with overlap
     ethr =  1.00E-02,  avg # of iterations =  2.0

     total cpu time spent up to now is       64.1 secs

     total energy              =    -140.64194914 Ry
     Harris-Foulkes estimate   =    -141.23602976 Ry
     estimated scf accuracy    <       1.54905412 Ry

     iteration #  2     ecut=    80.00 Ry     beta= 0.40
     Davidson diagonalization with overlap
     ethr =  1.67E-03,  avg # of iterations =  5.0

     total cpu time spent up to now is       93.9 secs

     total energy              =    -140.21867185 Ry
     Harris-Foulkes estimate   =    -141.45913969 Ry
     estimated scf accuracy    <       6.75726506 Ry

     iteration #  3     ecut=    80.00 Ry     beta= 0.40
     Davidson diagonalization with overlap
     ethr =  1.67E-03,  avg # of iterations =  5.0

     total cpu time spent up to now is      122.9 secs

     total energy              =    -140.82734403 Ry
     Harris-Foulkes estimate   =    -141.02204975 Ry
     estimated scf accuracy    <       1.16638618 Ry

     iteration #  4     ecut=    80.00 Ry     beta= 0.40
     Davidson diagonalization with overlap
     ethr =  1.25E-03,  avg # of iterations =  1.0

     total cpu time spent up to now is      144.0 secs

     total energy              =    -140.89906743 Ry
     Harris-Foulkes estimate   =    -140.94417676 Ry
     estimated scf accuracy    <       0.15548635 Ry

     iteration #  5     ecut=    80.00 Ry     beta= 0.40
     Davidson diagonalization with overlap
     ethr =  1.67E-04,  avg # of iterations =  5.0

     total cpu time spent up to now is      168.6 secs

     total energy              =    -140.91274558 Ry
     Harris-Foulkes estimate   =    -140.95610885 Ry
     estimated scf accuracy    <       0.30918895 Ry

     iteration #  6     ecut=    80.00 Ry     beta= 0.40
     Davidson diagonalization with overlap
     ethr =  1.67E-04,  avg # of iterations =  3.0

     total cpu time spent up to now is      191.3 secs

     total energy              =    -140.93258040 Ry
     Harris-Foulkes estimate   =    -140.93476079 Ry
     estimated scf accuracy    <       0.00963801 Ry

     iteration #  7     ecut=    80.00 Ry     beta= 0.40
     Davidson diagonalization with overlap
     ethr =  1.04E-05,  avg # of iterations = 11.0

     total cpu time spent up to now is      228.5 secs

     total energy              =    -140.93556775 Ry
     Harris-Foulkes estimate   =    -140.93672182 Ry
     estimated scf accuracy    <       0.00577906 Ry

     iteration #  8     ecut=    80.00 Ry     beta= 0.40
     Davidson diagonalization with overlap
     ethr =  6.21E-06,  avg # of iterations =  4.0

     total cpu time spent up to now is      253.6 secs

     total energy              =    -140.93547917 Ry
     Harris-Foulkes estimate   =    -140.93687722 Ry
     estimated scf accuracy    <       0.00901261 Ry

     iteration #  9     ecut=    80.00 Ry     beta= 0.40
     Davidson diagonalization with overlap
     ethr =  6.21E-06,  avg # of iterations =  3.0

     total cpu time spent up to now is      276.2 secs

     total energy              =    -140.93590165 Ry
     Harris-Foulkes estimate   =    -140.93619137 Ry
     estimated scf accuracy    <       0.00151069 Ry

     iteration # 10     ecut=    80.00 Ry     beta= 0.40
     Davidson diagonalization with overlap
     ethr =  1.62E-06,  avg # of iterations =  4.0

     total cpu time spent up to now is      300.2 secs

     total energy              =    -140.93600726 Ry
     Harris-Foulkes estimate   =    -140.93611099 Ry
     estimated scf accuracy    <       0.00041378 Ry

     iteration # 11     ecut=    80.00 Ry     beta= 0.40
     Davidson diagonalization with overlap
     ethr =  4.45E-07,  avg # of iterations =  4.0

     total cpu time spent up to now is      327.6 secs

     total energy              =    -140.93604669 Ry
     Harris-Foulkes estimate   =    -140.93616616 Ry
     estimated scf accuracy    <       0.00079181 Ry

     iteration # 12     ecut=    80.00 Ry     beta= 0.40
     Davidson diagonalization with overlap
     ethr =  4.45E-07,  avg # of iterations =  3.0

     total cpu time spent up to now is      349.3 secs

     total energy              =    -140.93610213 Ry
     Harris-Foulkes estimate   =    -140.93610922 Ry
     estimated scf accuracy    <       0.00003608 Ry

     iteration # 13     ecut=    80.00 Ry     beta= 0.40
     Davidson diagonalization with overlap
     ethr =  3.88E-08,  avg # of iterations =  5.0

     total cpu time spent up to now is      378.2 secs

     total energy              =    -140.93610874 Ry
     Harris-Foulkes estimate   =    -140.93611519 Ry
     estimated scf accuracy    <       0.00003708 Ry

     iteration # 14     ecut=    80.00 Ry     beta= 0.40
     Davidson diagonalization with overlap
     ethr =  3.88E-08,  avg # of iterations =  3.0

     total cpu time spent up to now is      401.1 secs

     total energy              =    -140.93611001 Ry
     Harris-Foulkes estimate   =    -140.93611382 Ry
     estimated scf accuracy    <       0.00002488 Ry

     iteration # 15     ecut=    80.00 Ry     beta= 0.40
     Davidson diagonalization with overlap
     ethr =  2.68E-08,  avg # of iterations =  1.0

     total cpu time spent up to now is      423.1 secs

     total energy              =    -140.93611109 Ry
     Harris-Foulkes estimate   =    -140.93611226 Ry
     estimated scf accuracy    <       0.00000574 Ry

     iteration # 16     ecut=    80.00 Ry     beta= 0.40
     Davidson diagonalization with overlap
     ethr =  6.17E-09,  avg # of iterations =  4.0

     total cpu time spent up to now is      449.0 secs

     total energy              =    -140.93611142 Ry
     Harris-Foulkes estimate   =    -140.93611242 Ry
     estimated scf accuracy    <       0.00000576 Ry

     iteration # 17     ecut=    80.00 Ry     beta= 0.40
     Davidson diagonalization with overlap
     ethr =  6.17E-09,  avg # of iterations =  2.0

     total cpu time spent up to now is      469.5 secs

     total energy              =    -140.93611170 Ry
     Harris-Foulkes estimate   =    -140.93611195 Ry
     estimated scf accuracy    <       0.00000100 Ry

     iteration # 18     ecut=    80.00 Ry     beta= 0.40
     Davidson diagonalization with overlap
     ethr =  1.08E-09,  avg # of iterations =  5.0

     total cpu time spent up to now is      495.8 secs

     total energy              =    -140.93611169 Ry
     Harris-Foulkes estimate   =    -140.93611197 Ry
     estimated scf accuracy    <       0.00000186 Ry

     iteration # 19     ecut=    80.00 Ry     beta= 0.40
     Davidson diagonalization with overlap
     ethr =  1.08E-09,  avg # of iterations =  3.0

     total cpu time spent up to now is      517.3 secs

     End of self-consistent calculation

          k = 0.0000 0.0000 0.0000 (448403 PWs)   bands (ev):

    -9.9529  -9.4481  -9.4331  -9.4330  -9.4259  -9.4258  -9.1458  -8.4049
    -8.4048  -8.3880  -8.3880  -8.3797  -8.3035  -8.2568  -8.2568  -7.5866
    -6.9324  -6.9324  -6.8231  -6.4866  -6.4772  -6.4772  -6.3701  -6.3700
    -5.4640  -4.8434  -4.8433  -4.8369  -4.7358  -4.7356  -4.4781  -4.4681
    -4.4427  -4.4427  -4.1226  -4.1225  -3.9778  -3.4709  -3.4688  -3.4687
    -3.4577  -3.4577  -3.4016  -3.2744  -3.2744  -3.2223  -3.2074  -2.9744
    -2.9653  -2.9652  -2.9390  -2.5197  -2.5196  -2.4502  -2.4492  -2.4314

     the Fermi energy is    -3.0911 ev

!    total energy              =    -140.93611171 Ry
     Harris-Foulkes estimate   =    -140.93611180 Ry
     estimated scf accuracy    <       0.00000010 Ry

     The total energy is the sum of the following terms:

     one-electron contribution =    -502.03578053 Ry
     hartree contribution      =     259.76296167 Ry
     xc contribution           =     -61.33570141 Ry
     ewald contribution        =     162.75343587 Ry
     smearing contrib. (-TS)   =      -0.08102731 Ry

     convergence has been achieved in  19 iterations

     Forces acting on atoms (cartesian axes, Ry/au):

     atom    1 type  1   force =    -0.00063636   -0.00328545    0.00000000
     atom    2 type  1   force =    -0.00525373    0.00126011    0.00000000
     atom    3 type  1   force =    -0.01313867    0.00756711    0.00000000
     atom    4 type  1   force =    -0.00314456    0.00109494    0.00000000
     atom    5 type  1   force =    -0.00003979   -0.01515440    0.00000000
     atom    6 type  1   force =     0.00201699    0.00115068    0.00000000
     atom    7 type  1   force =    -0.00155719   -0.00519038    0.00000000
     atom    8 type  1   force =     0.00185494   -0.00106457    0.00000000
     atom    9 type  1   force =    -0.00000875    0.00001894    0.00000000
     atom   10 type  1   force =     0.00255025    0.00222334    0.00000000
     atom   11 type  1   force =    -0.00370393    0.00392626    0.00000000
     atom   12 type  1   force =     0.00320488    0.00111522    0.00000000
     atom   13 type  1   force =    -0.00113708   -0.00065796    0.00000000
     atom   14 type  1   force =     0.00001497    0.00212278    0.00000000
     atom   15 type  1   force =     0.00153922   -0.00519296    0.00000000
     atom   16 type  1   force =    -0.00185426   -0.00107783    0.00000000
     atom   17 type  1   force =     0.00528481    0.00128960    0.00000000
     atom   18 type  1   force =    -0.00001043   -0.00230456    0.00000000
     atom   19 type  1   force =     0.00373671    0.00395714    0.00000000
     atom   20 type  1   force =     0.00112649    0.00067428    0.00000000
     atom   21 type  1   force =     0.00003113   -0.00051355    0.00000000
     atom   22 type  1   force =    -0.00198445    0.00111162    0.00000000
     atom   23 type  1   force =    -0.00043663    0.00026373    0.00000000
     atom   24 type  1   force =     0.00062199   -0.00331925    0.00000000
     atom   25 type  1   force =    -0.00001214    0.00134064    0.00000000
     atom   26 type  1   force =    -0.00254002    0.00218949    0.00000000
     atom   27 type  1   force =     0.01311206    0.00759760    0.00000000
     atom   28 type  1   force =    -0.00119169    0.00066682    0.00000000
     atom   29 type  1   force =     0.00114958   -0.00068381    0.00000000
     atom   30 type  1   force =    -0.00003193   -0.00136059    0.00000000
     atom   31 type  1   force =     0.00043758    0.00023500    0.00000000

     Total force =     0.031216     Total SCF correction =     0.000247


     Computing stress (Cartesian axis) and pressure

          total   stress  (Ry/bohr**3)                   (kbar)     P=   -0.57
  -0.00000579  -0.00000001   0.00000000         -0.85     -0.00      0.00
  -0.00000001  -0.00000578   0.00000000         -0.00     -0.85      0.00
   0.00000000   0.00000000   0.00000001          0.00      0.00      0.00


     BFGS Geometry Optimization

     number of scf cycles    =   1
     number of bfgs steps    =   0

     enthalpy new            =    -140.9361117069 Ry

     new trust radius        =       0.0151619852 bohr
     new conv_thr            =       0.0000010000 Ry

     new unit-cell volume =  37119.56484 a.u.^3 (  5500.55193 Ang^3 )
     density =      0.28059 g/cm^3

CELL_PARAMETERS (alat= 33.68096681)
   0.999855164  -0.000000362   0.000000000
  -0.499927896   0.865900339   0.000000000
   0.000000000   0.000000000   1.122132950

ATOMIC_POSITIONS (angstrom)
Al      -0.000338217   2.570477483   0.000000000
Al       2.224823837   1.286773323   0.000000000
Al      -0.006921448   5.148416198   0.000000000
Al      -4.456812025  10.289406824   0.000000000
Al      -2.227564178   8.994700064   0.000000000
Al      -6.681654410  14.147742153   0.000000000
Al      -4.455940396  12.858277870   0.000000000
Al       4.456155363   2.571669131   0.000000000
Al       6.682774391   1.286133197   0.000000000
Al       2.228949894   6.431714603   0.000000000
Al       4.453245912   5.146506397   0.000000000
Al       0.001722900  10.289434131   0.000000000
Al       2.227030672   9.002386718   0.000000000
Al      -2.227538245  14.148273071   0.000000000
Al       0.000873347  12.858293084   0.000000000
Al       8.909368258   2.571678699   0.000000000
Al      11.140750653   1.286822081   0.000000000
Al       6.682770470   6.429335467   0.000000000
Al       8.912358191   5.146539316   0.000000000
Al       4.455798653  10.289217413   0.000000000
Al       6.682824208   9.002479709   0.000000000
Al       2.226579296  14.147754643   0.000000000
Al       4.455003357  12.861196804   0.000000000
Al      13.365853878   2.570509340   0.000000000
Al      15.593123465   1.286865666   0.000000000
Al      11.136607494   6.431729856   0.000000000
Al      13.372494124   5.148482064   0.000000000
Al       8.909747538  10.289230044   0.000000000
Al      11.138591410   9.002406199   0.000000000
Al       6.682787808  14.146463177   0.000000000
Al       8.910641332  12.861198182   0.000000000



     Writing output data file 3al_planar_2x2_vcr.save/
     NEW-OLD atomic charge density approx. for the potential

     negative rho (up, down):  2.995E-07 0.000E+00
     extrapolated charge   92.97310, renormalised to   93.00000

     total cpu time spent up to now is      610.2 secs

     Self-consistent Calculation

     iteration #  1     ecut=    80.00 Ry     beta= 0.40
     Davidson diagonalization with overlap
     ethr =  1.00E-06,  avg # of iterations =  4.0

     Threshold (ethr) on eigenvalues was too large:
     Diagonalizing with lowered threshold

     Davidson diagonalization with overlap
     ethr =  7.08E-08,  avg # of iterations =  5.0

     negative rho (up, down):  1.482E-07 0.000E+00

     total cpu time spent up to now is      663.2 secs

     total energy              =    -140.93707357 Ry
     Harris-Foulkes estimate   =    -141.07026033 Ry
     estimated scf accuracy    <       0.00008154 Ry

     iteration #  2     ecut=    80.00 Ry     beta= 0.40
     Davidson diagonalization with overlap
     ethr =  8.77E-08,  avg # of iterations =  5.0

     negative rho (up, down):  1.342E-07 0.000E+00

     total cpu time spent up to now is      693.7 secs

     total energy              =    -140.93703543 Ry
     Harris-Foulkes estimate   =    -140.93720155 Ry
     estimated scf accuracy    <       0.00135382 Ry

     iteration #  3     ecut=    80.00 Ry     beta= 0.40
     Davidson diagonalization with overlap
     ethr =  8.77E-08,  avg # of iterations =  4.0

     negative rho (up, down):  8.685E-08 0.000E+00

     total cpu time spent up to now is      719.5 secs

     total energy              =    -140.93711230 Ry
     Harris-Foulkes estimate   =    -140.93711644 Ry
     estimated scf accuracy    <       0.00001465 Ry

     iteration #  4     ecut=    80.00 Ry     beta= 0.40
     Davidson diagonalization with overlap
     ethr =  1.58E-08,  avg # of iterations =  4.0

     negative rho (up, down):  6.498E-08 0.000E+00

     total cpu time spent up to now is      744.6 secs

     total energy              =    -140.93711236 Ry
     Harris-Foulkes estimate   =    -140.93711627 Ry
     estimated scf accuracy    <       0.00001787 Ry

     iteration #  5     ecut=    80.00 Ry     beta= 0.40
     Davidson diagonalization with overlap
     ethr =  1.58E-08,  avg # of iterations =  3.0

     negative rho (up, down):  3.617E-08 0.000E+00

     total cpu time spent up to now is      765.6 secs

     total energy              =    -140.93711389 Ry
     Harris-Foulkes estimate   =    -140.93711587 Ry
     estimated scf accuracy    <       0.00001275 Ry

     iteration #  6     ecut=    80.00 Ry     beta= 0.40
     Davidson diagonalization with overlap
     ethr =  1.37E-08,  avg # of iterations =  1.0

     total cpu time spent up to now is      786.2 secs

     End of self-consistent calculation

          k = 0.0000 0.0000 0.0000 (448403 PWs)   bands (ev):

    -9.9528  -9.4482  -9.4331  -9.4329  -9.4249  -9.4248  -9.1435  -8.4036
    -8.4035  -8.3841  -8.3841  -8.3822  -8.3047  -8.2539  -8.2539  -7.5848
    -6.9318  -6.9318  -6.8224  -6.4817  -6.4771  -6.4771  -6.3718  -6.3717
    -5.4690  -4.8391  -4.8391  -4.8346  -4.7361  -4.7359  -4.4762  -4.4669
    -4.4426  -4.4426  -4.1247  -4.1246  -3.9776  -3.4708  -3.4673  -3.4672
    -3.4580  -3.4579  -3.3994  -3.2727  -3.2727  -3.2208  -3.2173  -2.9698
    -2.9630  -2.9630  -2.9407  -2.5166  -2.5165  -2.4464  -2.4456  -2.4332

     the Fermi energy is    -3.0904 ev

!    total energy              =    -140.93711500 Ry
     Harris-Foulkes estimate   =    -140.93711506 Ry
     estimated scf accuracy    <       0.00000069 Ry

     The total energy is the sum of the following terms:

     one-electron contribution =    -502.12180191 Ry
     hartree contribution      =     259.80362294 Ry
     xc contribution           =     -61.33329419 Ry
     ewald contribution        =     162.79502517 Ry
     smearing contrib. (-TS)   =      -0.08066701 Ry

     convergence has been achieved in   6 iterations

     Forces acting on atoms (cartesian axes, Ry/au):

     atom    1 type  1   force =    -0.00070399   -0.00198833    0.00000000
     atom    2 type  1   force =    -0.00442417    0.00122643    0.00000000
     atom    3 type  1   force =    -0.01297498    0.00749242    0.00000000
     atom    4 type  1   force =    -0.00206361    0.00039353    0.00000000
     atom    5 type  1   force =    -0.00001854   -0.01497986    0.00000000
     atom    6 type  1   force =     0.00196561    0.00112324    0.00000000
     atom    7 type  1   force =    -0.00116900   -0.00445489    0.00000000
     atom    8 type  1   force =     0.00136108   -0.00078087    0.00000000
     atom    9 type  1   force =    -0.00000213    0.00001867    0.00000000
     atom   10 type  1   force =     0.00137761    0.00162525    0.00000000
     atom   11 type  1   force =    -0.00326742    0.00322601    0.00000000
     atom   12 type  1   force =     0.00209702    0.00039968    0.00000000
     atom   13 type  1   force =    -0.00081716   -0.00047788    0.00000000
     atom   14 type  1   force =     0.00000773    0.00155400    0.00000000
     atom   15 type  1   force =     0.00114937   -0.00445896    0.00000000
     atom   16 type  1   force =    -0.00136338   -0.00078824    0.00000000
     atom   17 type  1   force =     0.00444010    0.00125878    0.00000000
     atom   18 type  1   force =    -0.00001030   -0.00225080    0.00000000
     atom   19 type  1   force =     0.00328943    0.00323689    0.00000000
     atom   20 type  1   force =     0.00088637    0.00052859    0.00000000
     atom   21 type  1   force =     0.00002251   -0.00077750    0.00000000
     atom   22 type  1   force =    -0.00193919    0.00109411    0.00000000
     atom   23 type  1   force =    -0.00065651    0.00038445    0.00000000
     atom   24 type  1   force =     0.00069731   -0.00200873    0.00000000
     atom   25 type  1   force =    -0.00000667    0.00095354    0.00000000
     atom   26 type  1   force =    -0.00137199    0.00159893    0.00000000
     atom   27 type  1   force =     0.01295359    0.00750517    0.00000000
     atom   28 type  1   force =    -0.00091835    0.00051517    0.00000000
     atom   29 type  1   force =     0.00081549   -0.00048622    0.00000000
     atom   30 type  1   force =    -0.00002625   -0.00105285    0.00000000
     atom   31 type  1   force =     0.00067040    0.00037027    0.00000000

     Total force =     0.029281     Total SCF correction =     0.000395


     Computing stress (Cartesian axis) and pressure

          total   stress  (Ry/bohr**3)                   (kbar)     P=   -0.58
  -0.00000592  -0.00000001   0.00000000         -0.87     -0.00      0.00
  -0.00000001  -0.00000592   0.00000000         -0.00     -0.87      0.00
   0.00000000   0.00000000  -0.00000007          0.00      0.00     -0.01


     number of scf cycles    =   2
     number of bfgs steps    =   1

     enthalpy old            =    -140.9361117069 Ry
     enthalpy new            =    -140.9371149994 Ry

     CASE: enthalpy_new < enthalpy_old


     WARNING: bfgs curvature condition failed, Theta= 0.854
     new trust radius        =       0.0227396922 bohr
     new conv_thr            =       0.0000010000 Ry

     new unit-cell volume =  37103.10199 a.u.^3 (  5498.11239 Ang^3 )
     density =      0.28071 g/cm^3

CELL_PARAMETERS (alat= 33.68096681)
   0.999633302  -0.000000882   0.000000000
  -0.499817415   0.865708660   0.000000000
   0.000000000   0.000000000   1.122132950

ATOMIC_POSITIONS (angstrom)
Al      -0.000881223   2.567917152   0.000000000
Al       2.220536740   1.287477602   0.000000000
Al      -0.017343641   5.153286513   0.000000000
Al      -4.457812261  10.287659911   0.000000000
Al      -2.227095950   8.980680584   0.000000000
Al      -6.678592210  14.145515831   0.000000000
Al      -4.456012778  12.851641772   0.000000000
Al       4.456405903   2.570384867   0.000000000
Al       6.681287103   1.285859639   0.000000000
Al       2.229915870   6.431771824   0.000000000
Al       4.449508501   5.148158388   0.000000000
Al       0.003736031  10.287694178   0.000000000
Al       2.225779714   8.999952383   0.000000000
Al      -2.227042901  14.146556106   0.000000000
Al       0.001905753  12.851651874   0.000000000
Al       8.906148406   2.570384409   0.000000000
Al      11.142088094   1.287546678   0.000000000
Al       6.681275997   6.426091228   0.000000000
Al       8.913145431   5.148203860   0.000000000
Al       4.455587330  10.287401910   0.000000000
Al       6.681357315   8.999940958   0.000000000
Al       2.224513957  14.145497337   0.000000000
Al       4.453551453  12.858613548   0.000000000
Al      13.363420774   2.567921604   0.000000000
Al      15.589655759   1.287454214   0.000000000
Al      11.132675022   6.431759081   0.000000000
Al      13.379926507   5.153361070   0.000000000
Al       8.906946599  10.287403344   0.000000000
Al      11.136870311   8.999955145   0.000000000
Al       6.681274856  14.142387218   0.000000000
Al       8.909121217  12.858596777   0.000000000



     Writing output data file 3al_planar_2x2_vcr.save/
     NEW-OLD atomic charge density approx. for the potential

     negative rho (up, down):  4.811E-07 0.000E+00
     extrapolated charge   92.95877, renormalised to   93.00000

     total cpu time spent up to now is      877.7 secs

     Self-consistent Calculation

     iteration #  1     ecut=    80.00 Ry     beta= 0.40
     Davidson diagonalization with overlap
     ethr =  1.00E-06,  avg # of iterations =  4.0

     negative rho (up, down):  2.410E-07 0.000E+00

     total cpu time spent up to now is      914.0 secs

     total energy              =    -140.93841568 Ry
     Harris-Foulkes estimate   =    -141.14257806 Ry
     estimated scf accuracy    <       0.00011523 Ry

     iteration #  2     ecut=    80.00 Ry     beta= 0.40
     Davidson diagonalization with overlap
     ethr =  1.24E-07,  avg # of iterations =  6.0

     negative rho (up, down):  2.174E-07 0.000E+00

     total cpu time spent up to now is      949.7 secs

     total energy              =    -140.93839214 Ry
     Harris-Foulkes estimate   =    -140.93857838 Ry
     estimated scf accuracy    <       0.00144044 Ry

     iteration #  3     ecut=    80.00 Ry     beta= 0.40
     Davidson diagonalization with overlap
     ethr =  1.24E-07,  avg # of iterations =  4.0

     negative rho (up, down):  1.426E-07 0.000E+00

     total cpu time spent up to now is      977.3 secs

     total energy              =    -140.93847913 Ry
     Harris-Foulkes estimate   =    -140.93848684 Ry
     estimated scf accuracy    <       0.00003166 Ry

     iteration #  4     ecut=    80.00 Ry     beta= 0.40
     Davidson diagonalization with overlap
     ethr =  3.40E-08,  avg # of iterations =  4.0

     negative rho (up, down):  1.054E-07 0.000E+00

     total cpu time spent up to now is      999.7 secs

     total energy              =    -140.93847929 Ry
     Harris-Foulkes estimate   =    -140.93848462 Ry
     estimated scf accuracy    <       0.00002233 Ry

     iteration #  5     ecut=    80.00 Ry     beta= 0.40
     Davidson diagonalization with overlap
     ethr =  2.40E-08,  avg # of iterations =  4.0

     negative rho (up, down):  5.569E-08 0.000E+00

     total cpu time spent up to now is     1021.3 secs

     total energy              =    -140.93848065 Ry
     Harris-Foulkes estimate   =    -140.93848487 Ry
     estimated scf accuracy    <       0.00002669 Ry

     iteration #  6     ecut=    80.00 Ry     beta= 0.40
     Davidson diagonalization with overlap
     ethr =  2.40E-08,  avg # of iterations =  4.0

     negative rho (up, down):  2.115E-08 0.000E+00

     total cpu time spent up to now is     1047.6 secs

     total energy              =    -140.93848276 Ry
     Harris-Foulkes estimate   =    -140.93848325 Ry
     estimated scf accuracy    <       0.00000272 Ry

     iteration #  7     ecut=    80.00 Ry     beta= 0.40
     Davidson diagonalization with overlap
     ethr =  2.93E-09,  avg # of iterations =  5.0

     negative rho (up, down):  1.246E-08 0.000E+00

     total cpu time spent up to now is     1076.5 secs

     total energy              =    -140.93848268 Ry
     Harris-Foulkes estimate   =    -140.93848379 Ry
     estimated scf accuracy    <       0.00000759 Ry

     iteration #  8     ecut=    80.00 Ry     beta= 0.40
     Davidson diagonalization with overlap
     ethr =  2.93E-09,  avg # of iterations =  3.0

     total cpu time spent up to now is     1099.5 secs

     End of self-consistent calculation

          k = 0.0000 0.0000 0.0000 (448403 PWs)   bands (ev):

    -9.9541  -9.4491  -9.4357  -9.4356  -9.4238  -9.4238  -9.1416  -8.4034
    -8.4033  -8.3871  -8.3801  -8.3800  -8.3073  -8.2508  -8.2507  -7.5840
    -6.9324  -6.9324  -6.8227  -6.4780  -6.4779  -6.4768  -6.3751  -6.3751
    -5.4774  -4.8345  -4.8344  -4.8326  -4.7376  -4.7375  -4.4749  -4.4663
    -4.4436  -4.4436  -4.1293  -4.1292  -3.9783  -3.4710  -3.4670  -3.4669
    -3.4587  -3.4587  -3.3975  -3.2715  -3.2714  -3.2329  -3.2197  -2.9654
    -2.9610  -2.9610  -2.9437  -2.5134  -2.5133  -2.4423  -2.4415  -2.4367

     the Fermi energy is    -3.0906 ev

!    total energy              =    -140.93848283 Ry
     Harris-Foulkes estimate   =    -140.93848321 Ry
     estimated scf accuracy    <       0.00000051 Ry

     The total energy is the sum of the following terms:

     one-electron contribution =    -502.26122633 Ry
     hartree contribution      =     259.87512337 Ry
     xc contribution           =     -61.33159542 Ry
     ewald contribution        =     162.85939122 Ry
     smearing contrib. (-TS)   =      -0.08017566 Ry

     convergence has been achieved in   8 iterations

     Forces acting on atoms (cartesian axes, Ry/au):

     atom    1 type  1   force =    -0.00080352   -0.00020947    0.00000000
     atom    2 type  1   force =    -0.00328638    0.00116207    0.00000000
     atom    3 type  1   force =    -0.01284583    0.00740402    0.00000000
     atom    4 type  1   force =    -0.00056418   -0.00059320    0.00000000
     atom    5 type  1   force =    -0.00001311   -0.01482096    0.00000000
     atom    6 type  1   force =     0.00191383    0.00110820    0.00000000
     atom    7 type  1   force =    -0.00065457   -0.00344083    0.00000000
     atom    8 type  1   force =     0.00073523   -0.00042336    0.00000000
     atom    9 type  1   force =    -0.00000508    0.00001266    0.00000000
     atom   10 type  1   force =    -0.00021147    0.00081810    0.00000000
     atom   11 type  1   force =    -0.00263890    0.00226620    0.00000000
     atom   12 type  1   force =     0.00059705   -0.00058937    0.00000000
     atom   13 type  1   force =    -0.00041725   -0.00023768    0.00000000
     atom   14 type  1   force =     0.00002025    0.00085534    0.00000000
     atom   15 type  1   force =     0.00062137   -0.00344375    0.00000000
     atom   16 type  1   force =    -0.00074039   -0.00044441    0.00000000
     atom   17 type  1   force =     0.00330615    0.00120094    0.00000000
     atom   18 type  1   force =    -0.00001526   -0.00219891    0.00000000
     atom   19 type  1   force =     0.00266568    0.00228906    0.00000000
     atom   20 type  1   force =     0.00064263    0.00038412    0.00000000
     atom   21 type  1   force =     0.00002470   -0.00102834    0.00000000
     atom   22 type  1   force =    -0.00189905    0.00108339    0.00000000
     atom   23 type  1   force =    -0.00086819    0.00050848    0.00000000
     atom   24 type  1   force =     0.00079601   -0.00021819    0.00000000
     atom   25 type  1   force =    -0.00001109    0.00049323    0.00000000
     atom   26 type  1   force =     0.00022587    0.00078963    0.00000000
     atom   27 type  1   force =     0.01282325    0.00741593    0.00000000
     atom   28 type  1   force =    -0.00068020    0.00037689    0.00000000
     atom   29 type  1   force =     0.00040982   -0.00024878    0.00000000
     atom   30 type  1   force =    -0.00002441   -0.00076782    0.00000000
     atom   31 type  1   force =     0.00089704    0.00049685    0.00000000

     Total force =     0.027547     Total SCF correction =     0.000491


     Computing stress (Cartesian axis) and pressure

          total   stress  (Ry/bohr**3)                   (kbar)     P=   -0.60
  -0.00000610  -0.00000002   0.00000000         -0.90     -0.00      0.00
  -0.00000002  -0.00000609   0.00000000         -0.00     -0.90      0.00
   0.00000000   0.00000000   0.00000003          0.00      0.00      0.00


     number of scf cycles    =   3
     number of bfgs steps    =   2

     enthalpy old            =    -140.9371149994 Ry
     enthalpy new            =    -140.9384828284 Ry

     CASE: enthalpy_new < enthalpy_old

     new trust radius        =       0.0341019869 bohr
     new conv_thr            =       0.0000010000 Ry

     new unit-cell volume =  37077.91674 a.u.^3 (  5494.38032 Ang^3 )
     density =      0.28090 g/cm^3

CELL_PARAMETERS (alat= 33.68096681)
   0.999293793  -0.000001781   0.000000000
  -0.499648439   0.865415399   0.000000000
   0.000000000   0.000000000   1.122132950

ATOMIC_POSITIONS (angstrom)
Al      -0.001761993   2.565152229   0.000000000
Al       2.214772798   1.288490888   0.000000000
Al      -0.032973360   5.160544269   0.000000000
Al      -4.458363945  10.284359718   0.000000000
Al      -2.226377729   8.959603856   0.000000000
Al      -6.673976111  14.142080379   0.000000000
Al      -4.455781148  12.842207153   0.000000000
Al       4.456373440   2.568656502   0.000000000
Al       6.679008622   1.285435944   0.000000000
Al       2.230371752   6.431323093   0.000000000
Al       4.444245633   5.150023482   0.000000000
Al       0.005836370  10.284403419   0.000000000
Al       2.224128754   8.996386336   0.000000000
Al      -2.226277575  14.143465623   0.000000000
Al       0.003131867  12.842209915   0.000000000
Al       8.901634782   2.568630746   0.000000000
Al      11.143341276   1.288593715   0.000000000
Al       6.678985205   6.421199701   0.000000000
Al       8.913896161   5.150096908   0.000000000
Al       4.455097512  10.284525473   0.000000000
Al       6.679113256   8.995917981   0.000000000
Al       2.221412413  14.142016355   0.000000000
Al       4.451212176  12.854728695   0.000000000
Al      13.359745801   2.565120736   0.000000000
Al      15.584345849   1.288050056   0.000000000
Al      11.127684363   6.431265127   0.000000000
Al      13.390979136   5.160631052   0.000000000
Al       8.902819292  10.284514138   0.000000000
Al      11.133968414   8.996359705   0.000000000
Al       6.678959505  14.136341209   0.000000000
Al       8.906918789  12.854684703   0.000000000



     Writing output data file 3al_planar_2x2_vcr.save/
     NEW-OLD atomic charge density approx. for the potential

     negative rho (up, down):  7.513E-07 0.000E+00
     extrapolated charge   92.93688, renormalised to   93.00000

     total cpu time spent up to now is     1192.0 secs

     Self-consistent Calculation

     iteration #  1     ecut=    80.00 Ry     beta= 0.40
     Davidson diagonalization with overlap
     ethr =  1.00E-06,  avg # of iterations =  5.0

     negative rho (up, down):  3.820E-07 0.000E+00

     total cpu time spent up to now is     1228.6 secs

     total energy              =    -140.94022542 Ry
     Harris-Foulkes estimate   =    -141.25292617 Ry
     estimated scf accuracy    <       0.00022279 Ry

     iteration #  2     ecut=    80.00 Ry     beta= 0.40
     Davidson diagonalization with overlap
     ethr =  2.40E-07,  avg # of iterations =  5.0

     negative rho (up, down):  3.451E-07 0.000E+00

     total cpu time spent up to now is     1262.0 secs

     total energy              =    -140.94018077 Ry
     Harris-Foulkes estimate   =    -140.94054137 Ry
     estimated scf accuracy    <       0.00279011 Ry

     iteration #  3     ecut=    80.00 Ry     beta= 0.40
     Davidson diagonalization with overlap
     ethr =  2.40E-07,  avg # of iterations =  5.0

     negative rho (up, down):  2.302E-07 0.000E+00

     total cpu time spent up to now is     1290.4 secs

     total energy              =    -140.94034990 Ry
     Harris-Foulkes estimate   =    -140.94036484 Ry
     estimated scf accuracy    <       0.00006565 Ry

     iteration #  4     ecut=    80.00 Ry     beta= 0.40
     Davidson diagonalization with overlap
     ethr =  7.06E-08,  avg # of iterations =  4.0

     negative rho (up, down):  1.673E-07 0.000E+00

     total cpu time spent up to now is     1312.4 secs

     total energy              =    -140.94034964 Ry
     Harris-Foulkes estimate   =    -140.94035808 Ry
     estimated scf accuracy    <       0.00003392 Ry

     iteration #  5     ecut=    80.00 Ry     beta= 0.40
     Davidson diagonalization with overlap
     ethr =  3.65E-08,  avg # of iterations =  4.0

     negative rho (up, down):  8.231E-08 0.000E+00

     total cpu time spent up to now is     1335.5 secs

     total energy              =    -140.94034928 Ry
     Harris-Foulkes estimate   =    -140.94036039 Ry
     estimated scf accuracy    <       0.00007044 Ry

     iteration #  6     ecut=    80.00 Ry     beta= 0.40
     Davidson diagonalization with overlap
     ethr =  3.65E-08,  avg # of iterations =  3.0

     negative rho (up, down):  2.718E-08 0.000E+00

     total cpu time spent up to now is     1357.8 secs

     total energy              =    -140.94035498 Ry
     Harris-Foulkes estimate   =    -140.94035574 Ry
     estimated scf accuracy    <       0.00000478 Ry

     iteration #  7     ecut=    80.00 Ry     beta= 0.40
     Davidson diagonalization with overlap
     ethr =  5.14E-09,  avg # of iterations =  5.0

     negative rho (up, down):  1.961E-08 0.000E+00

     total cpu time spent up to now is     1384.7 secs

     total energy              =    -140.94035545 Ry
     Harris-Foulkes estimate   =    -140.94035648 Ry
     estimated scf accuracy    <       0.00000717 Ry

     iteration #  8     ecut=    80.00 Ry     beta= 0.40
     Davidson diagonalization with overlap
     ethr =  5.14E-09,  avg # of iterations =  3.0

     total cpu time spent up to now is     1405.9 secs

     End of self-consistent calculation

          k = 0.0000 0.0000 0.0000 (448403 PWs)   bands (ev):

    -9.9554  -9.4499  -9.4392  -9.4390  -9.4211  -9.4210  -9.1386  -8.4027
    -8.4027  -8.3923  -8.3746  -8.3746  -8.3101  -8.2450  -8.2449  -7.5823
    -6.9327  -6.9327  -6.8229  -6.4782  -6.4782  -6.4693  -6.3784  -6.3784
    -5.4887  -4.8293  -4.8276  -4.8276  -4.7383  -4.7382  -4.4725  -4.4646
    -4.4443  -4.4442  -4.1352  -4.1352  -3.9787  -3.4711  -3.4672  -3.4671
    -3.4580  -3.4579  -3.3937  -3.2689  -3.2689  -3.2557  -3.2180  -2.9604
    -2.9573  -2.9573  -2.9443  -2.5083  -2.5083  -2.4404  -2.4365  -2.4357

     the Fermi energy is    -3.0903 ev

!    total energy              =    -140.94035542 Ry
     Harris-Foulkes estimate   =    -140.94035601 Ry
     estimated scf accuracy    <       0.00000090 Ry

     The total energy is the sum of the following terms:

     one-electron contribution =    -502.47057842 Ry
     hartree contribution      =     259.97918411 Ry
     xc contribution           =     -61.32836561 Ry
     ewald contribution        =     162.95874450 Ry
     smearing contrib. (-TS)   =      -0.07934000 Ry

     convergence has been achieved in   8 iterations

     Forces acting on atoms (cartesian axes, Ry/au):

     atom    1 type  1   force =    -0.00090412    0.00210170    0.00000000
     atom    2 type  1   force =    -0.00190296    0.00106762    0.00000000
     atom    3 type  1   force =    -0.01278916    0.00737796    0.00000000
     atom    4 type  1   force =     0.00138112   -0.00182957    0.00000000
     atom    5 type  1   force =    -0.00000705   -0.01476055    0.00000000
     atom    6 type  1   force =     0.00185248    0.00106587    0.00000000
     atom    7 type  1   force =    -0.00002451   -0.00218850    0.00000000
     atom    8 type  1   force =    -0.00004299    0.00003716    0.00000000
     atom    9 type  1   force =     0.00000581   -0.00000301    0.00000000
     atom   10 type  1   force =    -0.00226484   -0.00026024    0.00000000
     atom   11 type  1   force =    -0.00187129    0.00110804    0.00000000
     atom   12 type  1   force =    -0.00137306   -0.00183424    0.00000000
     atom   13 type  1   force =     0.00008431    0.00003839    0.00000000
     atom   14 type  1   force =     0.00001409   -0.00005551    0.00000000
     atom   15 type  1   force =     0.00000780   -0.00217260    0.00000000
     atom   16 type  1   force =     0.00004657    0.00002391    0.00000000
     atom   17 type  1   force =     0.00189757    0.00108452    0.00000000
     atom   18 type  1   force =    -0.00000554   -0.00213529    0.00000000
     atom   19 type  1   force =     0.00189081    0.00111593    0.00000000
     atom   20 type  1   force =     0.00031065    0.00021128    0.00000000
     atom   21 type  1   force =     0.00001944   -0.00139296    0.00000000
     atom   22 type  1   force =    -0.00183296    0.00105109    0.00000000
     atom   23 type  1   force =    -0.00119484    0.00070002    0.00000000
     atom   24 type  1   force =     0.00089846    0.00211504    0.00000000
     atom   25 type  1   force =     0.00000227   -0.00008648    0.00000000
     atom   26 type  1   force =     0.00227704   -0.00028495    0.00000000
     atom   27 type  1   force =     0.01277051    0.00737924    0.00000000
     atom   28 type  1   force =    -0.00033702    0.00018150    0.00000000
     atom   29 type  1   force =    -0.00008471    0.00004356    0.00000000
     atom   30 type  1   force =    -0.00004115   -0.00038600    0.00000000
     atom   31 type  1   force =     0.00121728    0.00068708    0.00000000

     Total force =     0.027081     Total SCF correction =     0.000614


     Computing stress (Cartesian axis) and pressure

          total   stress  (Ry/bohr**3)                   (kbar)     P=   -0.62
  -0.00000634  -0.00000002   0.00000000         -0.93     -0.00      0.00
  -0.00000002  -0.00000634   0.00000000         -0.00     -0.93      0.00
   0.00000000   0.00000000   0.00000004          0.00      0.00      0.01


     number of scf cycles    =   4
     number of bfgs steps    =   3

     enthalpy old            =    -140.9384828284 Ry
     enthalpy new            =    -140.9403554172 Ry

     CASE: enthalpy_new < enthalpy_old

     new trust radius        =       0.0511356515 bohr
     new conv_thr            =       0.0000010000 Ry

     new unit-cell volume =  37039.69113 a.u.^3 (  5488.71587 Ang^3 )
     density =      0.28119 g/cm^3

CELL_PARAMETERS (alat= 33.68096681)
   0.998778279  -0.000003214   0.000000000
  -0.499391923   0.864970131   0.000000000
   0.000000000   0.000000000   1.122132950

ATOMIC_POSITIONS (angstrom)
Al      -0.003130986   2.562193137   0.000000000
Al       2.206823361   1.289949337   0.000000000
Al      -0.056396114   5.171390624   0.000000000
Al      -4.458149719  10.278707267   0.000000000
Al      -2.225285558   8.927954849   0.000000000
Al      -6.667043593  14.136813860   0.000000000
Al      -4.455084661  12.828622261   0.000000000
Al       4.455898622   2.566285433   0.000000000
Al       6.675556166   1.284782110   0.000000000
Al       2.229974332   6.430043172   0.000000000
Al       4.436720552   5.152195766   0.000000000
Al       0.007956862  10.278760510   0.000000000
Al       2.221894433   8.991119108   0.000000000
Al      -2.225122085  14.138270412   0.000000000
Al       0.004660732  12.828626204   0.000000000
Al       8.895212972   2.566227955   0.000000000
Al      11.144424657   1.290086151   0.000000000
Al       6.675513888   6.413855451   0.000000000
Al       8.914563950   5.152300707   0.000000000
Al       4.454163189  10.280061084   0.000000000
Al       6.675701503   8.989638731   0.000000000
Al       2.216782382  14.136686161   0.000000000
Al       4.447502845  12.848921825   0.000000000
Al      13.354197927   2.562118714   0.000000000
Al      15.576292506   1.288638782   0.000000000
Al      11.121192690   6.429918840   0.000000000
Al      13.407454160   5.171488913   0.000000000
Al       8.896748210  10.280014797   0.000000000
Al      11.129295030   8.991057477   0.000000000
Al       6.675431617  14.127376476   0.000000000
Al       8.903722457  12.848834216   0.000000000



     Writing output data file 3al_planar_2x2_vcr.save/
     NEW-OLD atomic charge density approx. for the potential

     negative rho (up, down):  1.150E-06 0.000E+00
     extrapolated charge   92.90410, renormalised to   93.00000

     total cpu time spent up to now is     1498.4 secs

     Self-consistent Calculation

     iteration #  1     ecut=    80.00 Ry     beta= 0.40
     Davidson diagonalization with overlap
     ethr =  1.00E-06,  avg # of iterations =  6.0

     negative rho (up, down):  5.948E-07 0.000E+00

     total cpu time spent up to now is     1539.0 secs

     total energy              =    -140.94271142 Ry
     Harris-Foulkes estimate   =    -141.41816710 Ry
     estimated scf accuracy    <       0.00044851 Ry

     iteration #  2     ecut=    80.00 Ry     beta= 0.40
     Davidson diagonalization with overlap
     ethr =  4.82E-07,  avg # of iterations =  7.0

     negative rho (up, down):  5.383E-07 0.000E+00

     total cpu time spent up to now is     1571.8 secs

     total energy              =    -140.94261807 Ry
     Harris-Foulkes estimate   =    -140.94335151 Ry
     estimated scf accuracy    <       0.00572083 Ry

     iteration #  3     ecut=    80.00 Ry     beta= 0.40
     Davidson diagonalization with overlap
     ethr =  4.82E-07,  avg # of iterations =  4.0

     negative rho (up, down):  3.605E-07 0.000E+00

     total cpu time spent up to now is     1600.0 secs

     total energy              =    -140.94296682 Ry
     Harris-Foulkes estimate   =    -140.94299550 Ry
     estimated scf accuracy    <       0.00013386 Ry

     iteration #  4     ecut=    80.00 Ry     beta= 0.40
     Davidson diagonalization with overlap
     ethr =  1.44E-07,  avg # of iterations =  3.0

     negative rho (up, down):  2.573E-07 0.000E+00

     total cpu time spent up to now is     1622.3 secs

     total energy              =    -140.94296568 Ry
     Harris-Foulkes estimate   =    -140.94298016 Ry
     estimated scf accuracy    <       0.00005619 Ry

     iteration #  5     ecut=    80.00 Ry     beta= 0.40
     Davidson diagonalization with overlap
     ethr =  6.04E-08,  avg # of iterations =  4.0

     negative rho (up, down):  1.164E-07 0.000E+00

     total cpu time spent up to now is     1646.8 secs

     total energy              =    -140.94296041 Ry
     Harris-Foulkes estimate   =    -140.94298787 Ry
     estimated scf accuracy    <       0.00018287 Ry

     iteration #  6     ecut=    80.00 Ry     beta= 0.40
     Davidson diagonalization with overlap
     ethr =  6.04E-08,  avg # of iterations =  4.0

     negative rho (up, down):  4.014E-08 0.000E+00

     total cpu time spent up to now is     1669.8 secs

     total energy              =    -140.94297347 Ry
     Harris-Foulkes estimate   =    -140.94297591 Ry
     estimated scf accuracy    <       0.00001550 Ry

     iteration #  7     ecut=    80.00 Ry     beta= 0.40
     Davidson diagonalization with overlap
     ethr =  1.67E-08,  avg # of iterations =  4.0

     negative rho (up, down):  2.017E-08 0.000E+00

     total cpu time spent up to now is     1692.2 secs

     total energy              =    -140.94297487 Ry
     Harris-Foulkes estimate   =    -140.94297528 Ry
     estimated scf accuracy    <       0.00000313 Ry

     iteration #  8     ecut=    80.00 Ry     beta= 0.40
     Davidson diagonalization with overlap
     ethr =  3.36E-09,  avg # of iterations =  4.0

     total cpu time spent up to now is     1719.7 secs

     total energy              =    -140.94297472 Ry
     Harris-Foulkes estimate   =    -140.94297550 Ry
     estimated scf accuracy    <       0.00000544 Ry

     iteration #  9     ecut=    80.00 Ry     beta= 0.40
     Davidson diagonalization with overlap
     ethr =  3.36E-09,  avg # of iterations =  3.0

     total cpu time spent up to now is     1741.6 secs

     End of self-consistent calculation

          k = 0.0000 0.0000 0.0000 (448403 PWs)   bands (ev):

    -9.9570  -9.4509  -9.4440  -9.4438  -9.4171  -9.4169  -9.1346  -8.4021
    -8.4019  -8.3988  -8.3676  -8.3675  -8.3137  -8.2354  -8.2353  -7.5801
    -6.9331  -6.9331  -6.8237  -6.4778  -6.4777  -6.4591  -6.3820  -6.3819
    -5.5052  -4.8244  -4.8181  -4.8179  -4.7381  -4.7379  -4.4687  -4.4615
    -4.4452  -4.4451  -4.1438  -4.1437  -3.9793  -3.4710  -3.4690  -3.4688
    -3.4553  -3.4551  -3.3876  -3.2898  -3.2649  -3.2648  -3.2157  -2.9606
    -2.9515  -2.9514  -2.9360  -2.5010  -2.5009  -2.4449  -2.4298  -2.4276

     the Fermi energy is    -3.0895 ev

!    total energy              =    -140.94297396 Ry
     Harris-Foulkes estimate   =    -140.94297469 Ry
     estimated scf accuracy    <       0.00000095 Ry

     The total energy is the sum of the following terms:

     one-electron contribution =    -502.78980908 Ry
     hartree contribution      =     260.13687523 Ry
     xc contribution           =     -61.32374704 Ry
     ewald contribution        =     163.11165031 Ry
     smearing contrib. (-TS)   =      -0.07794338 Ry

     convergence has been achieved in   9 iterations

     Forces acting on atoms (cartesian axes, Ry/au):

     atom    1 type  1   force =    -0.00102296    0.00520480    0.00000000
     atom    2 type  1   force =    -0.00008491    0.00091273    0.00000000
     atom    3 type  1   force =    -0.01287712    0.00741430    0.00000000
     atom    4 type  1   force =     0.00399492   -0.00346071    0.00000000
     atom    5 type  1   force =    -0.00002533   -0.01486569    0.00000000
     atom    6 type  1   force =     0.00180429    0.00103977    0.00000000
     atom    7 type  1   force =     0.00076448   -0.00055125    0.00000000
     atom    8 type  1   force =    -0.00102951    0.00062701    0.00000000
     atom    9 type  1   force =     0.00000989   -0.00001560    0.00000000
     atom   10 type  1   force =    -0.00500157   -0.00169645    0.00000000
     atom   11 type  1   force =    -0.00083222   -0.00041701    0.00000000
     atom   12 type  1   force =    -0.00397405   -0.00346774    0.00000000
     atom   13 type  1   force =     0.00068727    0.00039177    0.00000000
     atom   14 type  1   force =     0.00005509   -0.00121913    0.00000000
     atom   15 type  1   force =    -0.00080819   -0.00048860    0.00000000
     atom   16 type  1   force =     0.00107791    0.00060244    0.00000000
     atom   17 type  1   force =     0.00004700    0.00095298    0.00000000
     atom   18 type  1   force =     0.00000106   -0.00210584    0.00000000
     atom   19 type  1   force =     0.00087715   -0.00040610    0.00000000
     atom   20 type  1   force =    -0.00009605   -0.00002866    0.00000000
     atom   21 type  1   force =     0.00005789   -0.00183038    0.00000000
     atom   22 type  1   force =    -0.00184319    0.00105778    0.00000000
     atom   23 type  1   force =    -0.00155325    0.00093141    0.00000000
     atom   24 type  1   force =     0.00097823    0.00519296    0.00000000
     atom   25 type  1   force =     0.00002229   -0.00080016    0.00000000
     atom   26 type  1   force =     0.00497782   -0.00175372    0.00000000
     atom   27 type  1   force =     0.01285952    0.00744340    0.00000000
     atom   28 type  1   force =     0.00005077   -0.00007908    0.00000000
     atom   29 type  1   force =    -0.00069854    0.00041321    0.00000000
     atom   30 type  1   force =    -0.00005788    0.00007906    0.00000000
     atom   31 type  1   force =     0.00163917    0.00092250    0.00000000

     Total force =     0.029416     Total SCF correction =     0.000722


     Computing stress (Cartesian axis) and pressure

          total   stress  (Ry/bohr**3)                   (kbar)     P=   -0.65
  -0.00000669  -0.00000005   0.00000000         -0.98     -0.01      0.00
  -0.00000005  -0.00000669   0.00000000         -0.01     -0.98      0.00
   0.00000000   0.00000000   0.00000005          0.00      0.00      0.01


     number of scf cycles    =   5
     number of bfgs steps    =   4

     enthalpy old            =    -140.9403554172 Ry
     enthalpy new            =    -140.9429739555 Ry

     CASE: enthalpy_new < enthalpy_old

     new trust radius        =       0.0766640132 bohr
     new conv_thr            =       0.0000010000 Ry

     new unit-cell volume =  36981.99108 a.u.^3 (  5480.16561 Ang^3 )
     density =      0.28163 g/cm^3

CELL_PARAMETERS (alat= 33.68096681)
   0.997999646  -0.000006165   0.000000000
  -0.499005162   0.864297959   0.000000000
   0.000000000   0.000000000   1.122132950

ATOMIC_POSITIONS (angstrom)
Al      -0.005220916   2.559072137   0.000000000
Al       2.195676807   1.292040184   0.000000000
Al      -0.091492964   5.187598688   0.000000000
Al      -4.456685881  10.269496561   0.000000000
Al      -2.223657593   8.880480554   0.000000000
Al      -6.656651983  14.128824549   0.000000000
Al      -4.453701200  12.808897915   0.000000000
Al       4.454751784   2.562959624   0.000000000
Al       6.670341630   1.283783820   0.000000000
Al       2.228198655   6.427461441   0.000000000
Al       4.425874665   5.154765898   0.000000000
Al       0.010016492  10.269561726   0.000000000
Al       2.218765483   8.983311837   0.000000000
Al      -2.223362002  14.129913301   0.000000000
Al       0.006601201  12.808927870   0.000000000
Al       8.885967811   2.562844198   0.000000000
Al      11.145181260   1.292237484   0.000000000
Al       6.670269753   6.402821020   0.000000000
Al       8.915061481   5.154918341   0.000000000
Al       4.452560121  10.273202582   0.000000000
Al       6.670566842   8.980002348   0.000000000
Al       2.209808960  14.128613027   0.000000000
Al       4.441776036  12.840228585   0.000000000
Al      13.345810534   2.558900286   0.000000000
Al      15.564139273   1.289213286   0.000000000
Al      11.112528581   6.427208593   0.000000000
Al      13.432049339   5.187724318   0.000000000
Al       8.887739381  10.273089764   0.000000000
Al      11.121970380   8.983197856   0.000000000
Al       6.670083599  14.114037705   0.000000000
Al       8.899037226  12.840073264   0.000000000



     Writing output data file 3al_planar_2x2_vcr.save/
     NEW-OLD atomic charge density approx. for the potential

     negative rho (up, down):  1.733E-06 0.000E+00
     extrapolated charge   92.85502, renormalised to   93.00000

     total cpu time spent up to now is     1835.3 secs

     Self-consistent Calculation

     iteration #  1     ecut=    80.00 Ry     beta= 0.40
     Davidson diagonalization with overlap
     ethr =  1.00E-06,  avg # of iterations =  8.0

     negative rho (up, down):  9.092E-07 0.000E+00

     total cpu time spent up to now is     1881.5 secs

     total energy              =    -140.94625284 Ry
     Harris-Foulkes estimate   =    -141.66576308 Ry
     estimated scf accuracy    <       0.00072441 Ry

     iteration #  2     ecut=    80.00 Ry     beta= 0.40
     Davidson diagonalization with overlap
     ethr =  7.79E-07,  avg # of iterations = 15.0

     negative rho (up, down):  8.158E-07 0.000E+00

     total cpu time spent up to now is     1916.8 secs

     total energy              =    -140.94626170 Ry
     Harris-Foulkes estimate   =    -140.94711011 Ry
     estimated scf accuracy    <       0.00615953 Ry

     iteration #  3     ecut=    80.00 Ry     beta= 0.40
     Davidson diagonalization with overlap
     ethr =  7.79E-07,  avg # of iterations =  6.0

     negative rho (up, down):  5.658E-07 0.000E+00

     total cpu time spent up to now is     1942.1 secs

     total energy              =    -140.94663598 Ry
     Harris-Foulkes estimate   =    -140.94669139 Ry
     estimated scf accuracy    <       0.00025543 Ry

     iteration #  4     ecut=    80.00 Ry     beta= 0.40
     Davidson diagonalization with overlap
     ethr =  2.75E-07,  avg # of iterations =  2.0

     negative rho (up, down):  3.651E-07 0.000E+00

     total cpu time spent up to now is     1962.8 secs

     total energy              =    -140.94663614 Ry
     Harris-Foulkes estimate   =    -140.94666199 Ry
     estimated scf accuracy    <       0.00013342 Ry

     iteration #  5     ecut=    80.00 Ry     beta= 0.40
     Davidson diagonalization with overlap
     ethr =  1.43E-07,  avg # of iterations =  4.0

     negative rho (up, down):  1.734E-07 0.000E+00

     total cpu time spent up to now is     1985.8 secs

     total energy              =    -140.94662092 Ry
     Harris-Foulkes estimate   =    -140.94667326 Ry
     estimated scf accuracy    <       0.00031851 Ry

     iteration #  6     ecut=    80.00 Ry     beta= 0.40
     Davidson diagonalization with overlap
     ethr =  1.43E-07,  avg # of iterations =  3.0

     negative rho (up, down):  6.152E-08 0.000E+00

     total cpu time spent up to now is     2009.3 secs

     total energy              =    -140.94664510 Ry
     Harris-Foulkes estimate   =    -140.94665350 Ry
     estimated scf accuracy    <       0.00004660 Ry

     iteration #  7     ecut=    80.00 Ry     beta= 0.40
     Davidson diagonalization with overlap
     ethr =  5.01E-08,  avg # of iterations =  3.0

     negative rho (up, down):  4.291E-08 0.000E+00

     total cpu time spent up to now is     2033.0 secs

     total energy              =    -140.94664912 Ry
     Harris-Foulkes estimate   =    -140.94665299 Ry
     estimated scf accuracy    <       0.00002424 Ry

     iteration #  8     ecut=    80.00 Ry     beta= 0.40
     Davidson diagonalization with overlap
     ethr =  2.61E-08,  avg # of iterations =  1.0

     negative rho (up, down):  1.516E-08 0.000E+00

     total cpu time spent up to now is     2053.3 secs

     total energy              =    -140.94665116 Ry
     Harris-Foulkes estimate   =    -140.94665175 Ry
     estimated scf accuracy    <       0.00000284 Ry

     iteration #  9     ecut=    80.00 Ry     beta= 0.40
     Davidson diagonalization with overlap
     ethr =  3.06E-09,  avg # of iterations =  5.0

     total cpu time spent up to now is     2084.0 secs

     total energy              =    -140.94665165 Ry
     Harris-Foulkes estimate   =    -140.94665230 Ry
     estimated scf accuracy    <       0.00000547 Ry

     iteration # 10     ecut=    80.00 Ry     beta= 0.40
     Davidson diagonalization with overlap
     ethr =  3.06E-09,  avg # of iterations =  3.0

     total cpu time spent up to now is     2105.9 secs

     total energy              =    -140.94665152 Ry
     Harris-Foulkes estimate   =    -140.94665207 Ry
     estimated scf accuracy    <       0.00000464 Ry

     iteration # 11     ecut=    80.00 Ry     beta= 0.40
     Davidson diagonalization with overlap
     ethr =  3.06E-09,  avg # of iterations =  2.0

     total cpu time spent up to now is     2126.8 secs

     End of self-consistent calculation

          k = 0.0000 0.0000 0.0000 (448403 PWs)   bands (ev):

    -9.9598  -9.4537  -9.4512  -9.4500  -9.4115  -9.4111  -9.1301  -8.4067
    -8.4032  -8.4015  -8.3602  -8.3580  -8.3184  -8.2196  -8.2190  -7.5777
    -6.9341  -6.9339  -6.8259  -6.4772  -6.4763  -6.4445  -6.3862  -6.3854
    -5.5294  -4.8181  -4.8061  -4.8057  -4.7359  -4.7357  -4.4639  -4.4573
    -4.4466  -4.4464  -4.1561  -4.1557  -3.9804  -3.4732  -3.4716  -3.4713
    -3.4505  -3.4500  -3.3782  -3.3413  -3.2596  -3.2591  -3.2134  -2.9662
    -2.9428  -2.9424  -2.9164  -2.4912  -2.4912  -2.4501  -2.4415  -2.4175

     the Fermi energy is    -3.0885 ev

!    total energy              =    -140.94665092 Ry
     Harris-Foulkes estimate   =    -140.94665171 Ry
     estimated scf accuracy    <       0.00000095 Ry

     The total energy is the sum of the following terms:

     one-electron contribution =    -503.27584581 Ry
     hartree contribution      =     260.37437037 Ry
     xc contribution           =     -61.31699001 Ry
     ewald contribution        =     163.34772645 Ry
     smearing contrib. (-TS)   =      -0.07591192 Ry

     convergence has been achieved in  11 iterations

     Forces acting on atoms (cartesian axes, Ry/au):

     atom    1 type  1   force =    -0.00119369    0.00949252    0.00000000
     atom    2 type  1   force =     0.00233569    0.00048411    0.00000000
     atom    3 type  1   force =    -0.01294559    0.00757181    0.00000000
     atom    4 type  1   force =     0.00756900   -0.00558662    0.00000000
     atom    5 type  1   force =     0.00004058   -0.01516715    0.00000000
     atom    6 type  1   force =     0.00185150    0.00113221    0.00000000
     atom    7 type  1   force =     0.00167565    0.00168862    0.00000000
     atom    8 type  1   force =    -0.00225193    0.00123747    0.00000000
     atom    9 type  1   force =     0.00000687   -0.00004079    0.00000000
     atom   10 type  1   force =    -0.00886543   -0.00377309    0.00000000
     atom   11 type  1   force =     0.00065275   -0.00222210    0.00000000
     atom   12 type  1   force =    -0.00751095   -0.00576963    0.00000000
     atom   13 type  1   force =     0.00166503    0.00102411    0.00000000
     atom   14 type  1   force =     0.00004346   -0.00261473    0.00000000
     atom   15 type  1   force =    -0.00161297    0.00187621    0.00000000
     atom   16 type  1   force =     0.00241215    0.00126911    0.00000000
     atom   17 type  1   force =    -0.00256516    0.00048054    0.00000000
     atom   18 type  1   force =    -0.00005916   -0.00215872    0.00000000
     atom   19 type  1   force =    -0.00056141   -0.00236999    0.00000000
     atom   20 type  1   force =    -0.00077207   -0.00032769    0.00000000
     atom   21 type  1   force =    -0.00007259   -0.00242507    0.00000000
     atom   22 type  1   force =    -0.00220517    0.00126538    0.00000000
     atom   23 type  1   force =    -0.00196427    0.00090668    0.00000000
     atom   24 type  1   force =     0.00123994    0.00952855    0.00000000
     atom   25 type  1   force =     0.00000595   -0.00188413    0.00000000
     atom   26 type  1   force =     0.00875877   -0.00389833    0.00000000
     atom   27 type  1   force =     0.01301473    0.00752989    0.00000000
     atom   28 type  1   force =     0.00098308   -0.00034508    0.00000000
     atom   29 type  1   force =    -0.00189667    0.00118457    0.00000000
     atom   30 type  1   force =     0.00006184    0.00083883    0.00000000
     atom   31 type  1   force =     0.00216004    0.00107253    0.00000000

     Total force =     0.036488     Total SCF correction =     0.000837


     Computing stress (Cartesian axis) and pressure

          total   stress  (Ry/bohr**3)                   (kbar)     P=   -0.70
  -0.00000714  -0.00000003   0.00000000         -1.05     -0.00      0.00
  -0.00000003  -0.00000723   0.00000000         -0.00     -1.06      0.00
   0.00000000   0.00000000   0.00000001          0.00      0.00      0.00


     number of scf cycles    =   6
     number of bfgs steps    =   5

     enthalpy old            =    -140.9429739555 Ry
     enthalpy new            =    -140.9466509181 Ry

     CASE: enthalpy_new < enthalpy_old

     new trust radius        =       0.1149066868 bohr
     new conv_thr            =       0.0000010000 Ry

     new unit-cell volume =  36895.18727 a.u.^3 (  5467.30261 Ang^3 )
     density =      0.28229 g/cm^3

CELL_PARAMETERS (alat= 33.68096681)
   0.996828446  -0.000009704   0.000000000
  -0.498422626   0.863284163   0.000000000
   0.000000000   0.000000000   1.122132950

ATOMIC_POSITIONS (angstrom)
Al      -0.008388030   2.555861932   0.000000000
Al       2.179807846   1.294923262   0.000000000
Al      -0.143920483   5.211834910   0.000000000
Al      -4.453228720  10.254945735   0.000000000
Al      -2.221158408   8.809319195   0.000000000
Al      -6.641012426  14.116801757   0.000000000
Al      -4.451345377  12.780054528   0.000000000
Al       4.452645985   2.558109797   0.000000000
Al       6.662494828   1.282273830   0.000000000
Al       2.224186995   6.422788527   0.000000000
Al       4.410178399   5.158032258   0.000000000
Al       0.011905001  10.254923274   0.000000000
Al       2.214439571   8.971805473   0.000000000
Al      -2.220716828  14.116873434   0.000000000
Al       0.009341533  12.780197036   0.000000000
Al       8.872510660   2.557950040   0.000000000
Al      11.145310913   1.295188684   0.000000000
Al       6.662347419   6.386224766   0.000000000
Al       8.915227351   5.158159439   0.000000000
Al       4.449881312  10.262760231   0.000000000
Al       6.662762076   8.965334983   0.000000000
Al       2.199145004  14.116538412   0.000000000
Al       4.433102198  12.826991234   0.000000000
Al      13.333286577   2.555584048   0.000000000
Al      15.545844419   1.289690704   0.000000000
Al      11.100800215   6.422312022   0.000000000
Al      13.468744714   5.211966093   0.000000000
Al       8.874639298  10.262579498   0.000000000
Al      11.110450063   8.971703807   0.000000000
Al       6.662134301  14.094247510   0.000000000
Al       8.892129489  12.826848396   0.000000000



     Writing output data file 3al_planar_2x2_vcr.save/
     NEW-OLD atomic charge density approx. for the potential

     negative rho (up, down):  2.656E-06 0.000E+00
     extrapolated charge   92.78138, renormalised to   93.00000

     total cpu time spent up to now is     2217.3 secs

     Self-consistent Calculation

     iteration #  1     ecut=    80.00 Ry     beta= 0.40
     Davidson diagonalization with overlap
     ethr =  1.00E-06,  avg # of iterations = 13.0

     negative rho (up, down):  1.424E-06 0.000E+00

     total cpu time spent up to now is     2264.6 secs

     total energy              =    -140.95103121 Ry
     Harris-Foulkes estimate   =    -142.03781935 Ry
     estimated scf accuracy    <       0.00147170 Ry

     iteration #  2     ecut=    80.00 Ry     beta= 0.40
     Davidson diagonalization with overlap
     c_bands:  1 eigenvalues not converged
     ethr =  1.58E-06,  avg # of iterations = 20.0

     negative rho (up, down):  1.277E-06 0.000E+00

     total cpu time spent up to now is     2301.5 secs

     total energy              =    -140.95115373 Ry
     Harris-Foulkes estimate   =    -140.95287469 Ry
     estimated scf accuracy    <       0.01216778 Ry

     iteration #  3     ecut=    80.00 Ry     beta= 0.40
     Davidson diagonalization with overlap
     ethr =  1.58E-06,  avg # of iterations =  5.0

     negative rho (up, down):  9.332E-07 0.000E+00

     total cpu time spent up to now is     2328.6 secs

     total energy              =    -140.95188754 Ry
     Harris-Foulkes estimate   =    -140.95205166 Ry
     estimated scf accuracy    <       0.00075591 Ry

     iteration #  4     ecut=    80.00 Ry     beta= 0.40
     Davidson diagonalization with overlap
     ethr =  8.13E-07,  avg # of iterations =  2.0

     negative rho (up, down):  5.989E-07 0.000E+00

     total cpu time spent up to now is     2349.1 secs

     total energy              =    -140.95191578 Ry
     Harris-Foulkes estimate   =    -140.95196534 Ry
     estimated scf accuracy    <       0.00029001 Ry

     iteration #  5     ecut=    80.00 Ry     beta= 0.40
     Davidson diagonalization with overlap
     ethr =  3.12E-07,  avg # of iterations =  3.0

     negative rho (up, down):  3.612E-07 0.000E+00

     total cpu time spent up to now is     2369.6 secs

     total energy              =    -140.95188853 Ry
     Harris-Foulkes estimate   =    -140.95196373 Ry
     estimated scf accuracy    <       0.00038551 Ry

     iteration #  6     ecut=    80.00 Ry     beta= 0.40
     Davidson diagonalization with overlap
     ethr =  3.12E-07,  avg # of iterations =  3.0

     negative rho (up, down):  7.190E-08 0.000E+00

     total cpu time spent up to now is     2390.4 secs

     total energy              =    -140.95192099 Ry
     Harris-Foulkes estimate   =    -140.95194500 Ry
     estimated scf accuracy    <       0.00015334 Ry

     iteration #  7     ecut=    80.00 Ry     beta= 0.40
     Davidson diagonalization with overlap
     ethr =  1.65E-07,  avg # of iterations =  1.0

     negative rho (up, down):  5.193E-08 0.000E+00

     total cpu time spent up to now is     2411.0 secs

     total energy              =    -140.95193349 Ry
     Harris-Foulkes estimate   =    -140.95193773 Ry
     estimated scf accuracy    <       0.00002355 Ry

     iteration #  8     ecut=    80.00 Ry     beta= 0.40
     Davidson diagonalization with overlap
     ethr =  2.53E-08,  avg # of iterations =  5.0

     negative rho (up, down):  3.576E-08 0.000E+00

     total cpu time spent up to now is     2436.5 secs

     total energy              =    -140.95193759 Ry
     Harris-Foulkes estimate   =    -140.95194030 Ry
     estimated scf accuracy    <       0.00001844 Ry

     iteration #  9     ecut=    80.00 Ry     beta= 0.40
     Davidson diagonalization with overlap
     ethr =  1.98E-08,  avg # of iterations =  1.0

     negative rho (up, down):  1.470E-08 0.000E+00

     total cpu time spent up to now is     2456.8 secs

     total energy              =    -140.95193746 Ry
     Harris-Foulkes estimate   =    -140.95193883 Ry
     estimated scf accuracy    <       0.00000428 Ry

     iteration # 10     ecut=    80.00 Ry     beta= 0.40
     Davidson diagonalization with overlap
     ethr =  4.60E-09,  avg # of iterations =  5.0

     total cpu time spent up to now is     2483.1 secs

     total energy              =    -140.95193761 Ry
     Harris-Foulkes estimate   =    -140.95193892 Ry
     estimated scf accuracy    <       0.00001122 Ry

     iteration # 11     ecut=    80.00 Ry     beta= 0.40
     Davidson diagonalization with overlap
     ethr =  4.60E-09,  avg # of iterations =  4.0

     total cpu time spent up to now is     2505.9 secs

     total energy              =    -140.95193737 Ry
     Harris-Foulkes estimate   =    -140.95193835 Ry
     estimated scf accuracy    <       0.00000471 Ry

     iteration # 12     ecut=    80.00 Ry     beta= 0.40
     Davidson diagonalization with overlap
     ethr =  4.60E-09,  avg # of iterations =  4.0

     total cpu time spent up to now is     2527.5 secs

     End of self-consistent calculation

          k = 0.0000 0.0000 0.0000 (448403 PWs)   bands (ev):

    -9.9648  -9.4616  -9.4612  -9.4569  -9.4054  -9.4054  -9.1266  -8.4192
    -8.4040  -8.4038  -8.3512  -8.3505  -8.3257  -8.1938  -8.1937  -7.5796
    -6.9367  -6.9366  -6.8304  -6.4759  -6.4755  -6.4254  -6.3907  -6.3905
    -5.5676  -4.8093  -4.7926  -4.7923  -4.7298  -4.7297  -4.4573  -4.4514
    -4.4492  -4.4491  -4.1759  -4.1756  -3.9825  -3.4777  -3.4774  -3.4723
    -3.4440  -3.4439  -3.4231  -3.3640  -3.2523  -3.2522  -3.2125  -2.9756
    -2.9302  -2.9300  -2.8859  -2.4782  -2.4779  -2.4581  -2.4395  -2.4392

     the Fermi energy is    -3.0876 ev

!    total energy              =    -140.95193757 Ry
     Harris-Foulkes estimate   =    -140.95193793 Ry
     estimated scf accuracy    <       0.00000048 Ry

     The total energy is the sum of the following terms:

     one-electron contribution =    -504.03081478 Ry
     hartree contribution      =     260.74413641 Ry
     xc contribution           =     -61.30920555 Ry
     ewald contribution        =     163.71642641 Ry
     smearing contrib. (-TS)   =      -0.07248007 Ry

     convergence has been achieved in  12 iterations

     Forces acting on atoms (cartesian axes, Ry/au):

     atom    1 type  1   force =    -0.00151361    0.01529106    0.00000000
     atom    2 type  1   force =     0.00571824    0.00012371    0.00000000
     atom    3 type  1   force =    -0.01334606    0.00773572    0.00000000
     atom    4 type  1   force =     0.01241164   -0.00903794    0.00000000
     atom    5 type  1   force =     0.00008040   -0.01544024    0.00000000
     atom    6 type  1   force =     0.00210809    0.00122546    0.00000000
     atom    7 type  1   force =     0.00297230    0.00497665    0.00000000
     atom    8 type  1   force =    -0.00406824    0.00233197    0.00000000
     atom    9 type  1   force =     0.00000754   -0.00002302    0.00000000
     atom   10 type  1   force =    -0.01403350   -0.00635644    0.00000000
     atom   11 type  1   force =     0.00273524   -0.00501179    0.00000000
     atom   12 type  1   force =    -0.01256503   -0.00902206    0.00000000
     atom   13 type  1   force =     0.00302186    0.00171256    0.00000000
     atom   14 type  1   force =    -0.00004025   -0.00465696    0.00000000
     atom   15 type  1   force =    -0.00296604    0.00492185    0.00000000
     atom   16 type  1   force =     0.00401704    0.00238180    0.00000000
     atom   17 type  1   force =    -0.00576561   -0.00001399    0.00000000
     atom   18 type  1   force =     0.00007607   -0.00247442    0.00000000
     atom   19 type  1   force =    -0.00292282   -0.00505805    0.00000000
     atom   20 type  1   force =    -0.00152929   -0.00097793    0.00000000
     atom   21 type  1   force =    -0.00008654   -0.00294720    0.00000000
     atom   22 type  1   force =    -0.00205234    0.00128040    0.00000000
     atom   23 type  1   force =    -0.00268753    0.00148931    0.00000000
     atom   24 type  1   force =     0.00158973    0.01536247    0.00000000
     atom   25 type  1   force =     0.00001407   -0.00353919    0.00000000
     atom   26 type  1   force =     0.01411875   -0.00620889    0.00000000
     atom   27 type  1   force =     0.01337683    0.00769254    0.00000000
     atom   28 type  1   force =     0.00165278   -0.00094770    0.00000000
     atom   29 type  1   force =    -0.00298737    0.00171133    0.00000000
     atom   30 type  1   force =     0.00013087    0.00193280    0.00000000
     atom   31 type  1   force =     0.00253279    0.00154620    0.00000000

     Total force =     0.049961     Total SCF correction =     0.000481


     Computing stress (Cartesian axis) and pressure

          total   stress  (Ry/bohr**3)                   (kbar)     P=   -0.77
  -0.00000785   0.00000001   0.00000000         -1.15      0.00      0.00
   0.00000001  -0.00000788   0.00000000          0.00     -1.16      0.00
   0.00000000   0.00000000   0.00000003          0.00      0.00      0.00


     number of scf cycles    =   7
     number of bfgs steps    =   6

     enthalpy old            =    -140.9466509181 Ry
     enthalpy new            =    -140.9519375744 Ry

     CASE: enthalpy_new < enthalpy_old

     new trust radius        =       0.1721575018 bohr
     new conv_thr            =       0.0000010000 Ry

     new unit-cell volume =  36764.70909 a.u.^3 (  5447.96774 Ang^3 )
     density =      0.28329 g/cm^3

CELL_PARAMETERS (alat= 33.68096681)
   0.995064201  -0.000013792   0.000000000
  -0.497544045   0.861758436   0.000000000
   0.000000000   0.000000000   1.122132950

ATOMIC_POSITIONS (angstrom)
Al      -0.013224095   2.552608527   0.000000000
Al       2.156981108   1.299111271   0.000000000
Al      -0.222458742   5.248047606   0.000000000
Al      -4.446678200  10.231991895   0.000000000
Al      -2.217367622   8.702797685   0.000000000
Al      -6.617353079  14.098716553   0.000000000
Al      -4.447452128  12.737770574   0.000000000
Al       4.448957526   2.551155649   0.000000000
Al       6.650674634   1.280031584   0.000000000
Al       2.216771398   6.415076604   0.000000000
Al       4.387285543   5.162087599   0.000000000
Al       0.013295352  10.232002114   0.000000000
Al       2.208358724   8.954670481   0.000000000
Al      -2.216774546  14.096696136   0.000000000
Al       0.013109254  12.737901502   0.000000000
Al       8.852600483   2.550940082   0.000000000
Al      11.144589762   1.299409091   0.000000000
Al       6.650516005   6.361147021   0.000000000
Al       8.914549478   5.162274164   0.000000000
Al       4.445652777  10.246788516   0.000000000
Al       6.651022624   8.943305513   0.000000000
Al       2.183339495  14.098309342   0.000000000
Al       4.419889102  12.807324500   0.000000000
Al      13.314502901   2.552199855   0.000000000
Al      15.518289981   1.289882750   0.000000000
Al      11.084662603   6.414464925   0.000000000
Al      13.523558182   5.248211920   0.000000000
Al       8.855027641  10.246543673   0.000000000
Al      11.092892131   8.954466063   0.000000000
[...]
Al       2.750475866   2.736611825   0.000000000
Al       5.093359965   1.262321111   0.000000000
Al       0.509394165   6.544222168   0.000000000
Al       2.847055180   5.233692749   0.000000000
Al       0.698773012   9.172867710   0.000000000
Al       3.010341507   7.736599905   0.000000000
Al      -1.675988667  10.500929515   0.000000000
Al       1.488916295  11.713213106   0.000000000
Al       7.471668740   2.260975846   0.000000000
Al       9.485650910   0.781462685   0.000000000
Al       5.253046678   3.765924602   0.000000000
Al       7.964086882   4.757839311   0.000000000
Al       5.721371530   8.728612696   0.000000000
Al       5.487219438   6.247266061   0.000000000
Al      -0.621563765  13.082394817   0.000000000
Al       3.502689222  10.233427795   0.000000000
Al      10.275695902   3.321729900   0.000000000
Al      11.595910157  -0.588021958   0.000000000
Al      10.465030995   5.950327791   0.000000000
Al      12.802450808   4.781096232   0.000000000
Al       8.223972127   9.757896005   0.000000000
Al       8.127355312   7.260800101   0.000000000
Al       5.881054740  11.232194825   0.000000000
Al       8.110248093  12.232871378   0.000000000
End final coordinates



     Writing output data file 3al_planar_2x2_vcr.save/

     A final scf calculation at the relaxed structure.
     The G-vectors are recalculated for the final unit cell
     Results may differ from those at the preceding step.
 
     Parallelization info
     --------------------
     sticks:   dense  smooth     PW     G-vecs:    dense   smooth      PW
     Min        2262    2262    564               324588   324588   40562
     Max        2264    2264    565               324589   324589   40567
     Sum       18103   18103   4519              2596709  2596709  324517
 


     bravais-lattice index     =            4
     lattice parameter (alat)  =      33.6810  a.u.
     unit-cell volume          =   26861.2987 (a.u.)^3
     number of atoms/cell      =           31
     number of atomic types    =            1
     number of electrons       =        93.00
     number of Kohn-Sham states=           56
     kinetic-energy cutoff     =      80.0000  Ry
     charge density cutoff     =     320.0000  Ry
     convergence threshold     =      1.0E-08
     mixing beta               =       0.4000
     number of iterations used =            8  plain     mixing
     Exchange-correlation      = PBE ( 1  4  3  4 0 0)

     celldm(1)=  33.680967  celldm(2)=   0.000000  celldm(3)=   1.122133
     celldm(4)=   0.000000  celldm(5)=   0.000000  celldm(6)=   0.000000

     crystal axes: (cart. coord. in units of alat)
               a(1) = (   0.832090  -0.009992   0.000000 )  
               a(2) = (  -0.424904   0.758039   0.000000 )  
               a(3) = (   0.000000   0.000000   1.122133 )  

     reciprocal axes: (cart. coord. in units 2 pi/alat)
               b(1) = (  1.209937  0.678207  0.000000 )  
               b(2) = (  0.015948  1.328133  0.000000 )  
               b(3) = (  0.000000  0.000000  0.891160 )  


     PseudoPot. # 1 for Al read from file:
     ./Al.upf
     MD5 check sum: 4974d48a734c9d7d1eb6780a1419d19d
     Pseudo is Norm-conserving + core correction, Zval =  3.0
     Generated using ONCVPSP code by D. R. Hamann
     Using radial grid of 1876 points,  6 beta functions with: 
                l(1) =   0
                l(2) =   0
                l(3) =   1
                l(4) =   1
                l(5) =   2
                l(6) =   2

     atomic species   valence    mass     pseudopotential
        Al             3.00    29.98200     Al( 1.00)

      2 Sym. Ops. (no inversion) found



   Cartesian axes

     site n.     atom                  positions (alat units)
         1           Al  tau(   1) = (  -0.1223237   0.1218340   0.0000000  )
         2           Al  tau(   2) = (   0.0225869   0.0784887   0.0000000  )
         3           Al  tau(   3) = (   0.0207861   0.2223542   0.0000000  )
         4           Al  tau(   4) = (  -0.2371380   0.4886629   0.0000000  )
         5           Al  tau(   5) = (  -0.1025705   0.4327616   0.0000000  )
         6           Al  tau(   6) = (  -0.2642055   0.7727189   0.0000000  )
         7           Al  tau(   7) = (  -0.2389412   0.6325278   0.0000000  )
         8           Al  tau(   8) = (   0.1543200   0.1535421   0.0000000  )
         9           Al  tau(   9) = (   0.2857714   0.0708246   0.0000000  )
        10           Al  tau(  10) = (   0.0285804   0.3671744   0.0000000  )
        11           Al  tau(  11) = (   0.1597387   0.2936450   0.0000000  )
        12           Al  tau(  12) = (   0.0392058   0.5146589   0.0000000  )
        13           Al  tau(  13) = (   0.1689002   0.4340747   0.0000000  )
        14           Al  tau(  14) = (  -0.0940341   0.5891720   0.0000000  )
        15           Al  tau(  15) = (   0.0835381   0.6571891   0.0000000  )
        16           Al  tau(  16) = (   0.4192103   0.1268558   0.0000000  )
        17           Al  tau(  17) = (   0.5322081   0.0438453   0.0000000  )
        18           Al  tau(  18) = (   0.2947308   0.2112934   0.0000000  )
        19           Al  tau(  19) = (   0.4468382   0.2669464   0.0000000  )
        20           Al  tau(  20) = (   0.3210070   0.4897332   0.0000000  )
        21           Al  tau(  21) = (   0.3078695   0.3505132   0.0000000  )
        22           Al  tau(  22) = (  -0.0348739   0.7340093   0.0000000  )
        23           Al  tau(  23) = (   0.1965241   0.5741633   0.0000000  )
        24           Al  tau(  24) = (   0.5765348   0.1863711   0.0000000  )
        25           Al  tau(  25) = (   0.6506076  -0.0329919   0.0000000  )
        26           Al  tau(  26) = (   0.5871578   0.3338529   0.0000000  )
        27           Al  tau(  27) = (   0.7183026   0.2682513   0.0000000  )
        28           Al  tau(  28) = (   0.4614195   0.5474828   0.0000000  )
        29           Al  tau(  29) = (   0.4559987   0.4073792   0.0000000  )
        30           Al  tau(  30) = (   0.3299663   0.6302008   0.0000000  )
        31           Al  tau(  31) = (   0.4550388   0.6863454   0.0000000  )

     number of k points=     1  Methfessel-Paxton smearing, width (Ry)=  0.0500
                       cart. coord. in units 2pi/alat
        k(    1) = (   0.0000000   0.0000000   0.0000000), wk =   2.0000000

     Dense  grid:  2596709 G-vectors     FFT dimensions: ( 160, 180, 216)

     Estimated max dynamical RAM per process >     867.37 MB

     Estimated total dynamical RAM >       6.78 GB

     Initial potential from superposition of free atoms

     starting charge   92.92414, renormalised to   93.00000

     negative rho (up, down):  7.285E-05 0.000E+00
     Starting wfcs are  124 randomized atomic wfcs

     total cpu time spent up to now is    97718.6 secs

     Self-consistent Calculation

     iteration #  1     ecut=    80.00 Ry     beta= 0.40
     Davidson diagonalization with overlap
     c_bands:  3 eigenvalues not converged
     ethr =  1.00E-06,  avg # of iterations = 20.0

     negative rho (up, down):  1.139E-05 0.000E+00

     total cpu time spent up to now is    97776.7 secs

     total energy              =    -141.94851490 Ry
     Harris-Foulkes estimate   =    -142.38781999 Ry
     estimated scf accuracy    <       1.10842968 Ry

     iteration #  2     ecut=    80.00 Ry     beta= 0.40
     Davidson diagonalization with overlap
     ethr =  1.19E-03,  avg # of iterations =  5.0

     negative rho (up, down):  7.061E-06 0.000E+00

     total cpu time spent up to now is    97795.3 secs

     total energy              =    -141.89607298 Ry
     Harris-Foulkes estimate   =    -142.21983503 Ry
     estimated scf accuracy    <       0.99030369 Ry

     iteration #  3     ecut=    80.00 Ry     beta= 0.40
     Davidson diagonalization with overlap
     ethr =  1.06E-03,  avg # of iterations =  5.0

     negative rho (up, down):  2.936E-06 0.000E+00

     total cpu time spent up to now is    97814.1 secs

     total energy              =    -142.00765131 Ry
     Harris-Foulkes estimate   =    -142.14426167 Ry
     estimated scf accuracy    <       0.54618442 Ry

     iteration #  4     ecut=    80.00 Ry     beta= 0.40
     Davidson diagonalization with overlap
     ethr =  5.87E-04,  avg # of iterations =  4.0

     negative rho (up, down):  1.147E-06 0.000E+00

     total cpu time spent up to now is    97831.1 secs

     total energy              =    -142.06246896 Ry
     Harris-Foulkes estimate   =    -142.08449800 Ry
     estimated scf accuracy    <       0.07238589 Ry

     iteration #  5     ecut=    80.00 Ry     beta= 0.40
     Davidson diagonalization with overlap
     ethr =  7.78E-05,  avg # of iterations = 12.0

     negative rho (up, down):  7.098E-07 0.000E+00

     total cpu time spent up to now is    97855.0 secs

     total energy              =    -142.07420578 Ry
     Harris-Foulkes estimate   =    -142.07873084 Ry
     estimated scf accuracy    <       0.01753650 Ry

     iteration #  6     ecut=    80.00 Ry     beta= 0.40
     Davidson diagonalization with overlap
     ethr =  1.89E-05,  avg # of iterations = 12.0

     negative rho (up, down):  1.869E-07 0.000E+00

     total cpu time spent up to now is    97877.5 secs

     total energy              =    -142.07483605 Ry
     Harris-Foulkes estimate   =    -142.07713727 Ry
     estimated scf accuracy    <       0.00992202 Ry

     iteration #  7     ecut=    80.00 Ry     beta= 0.40
     Davidson diagonalization with overlap
     ethr =  1.07E-05,  avg # of iterations =  8.0

     negative rho (up, down):  4.271E-08 0.000E+00

     total cpu time spent up to now is    97896.7 secs

     total energy              =    -142.07580387 Ry
     Harris-Foulkes estimate   =    -142.07611999 Ry
     estimated scf accuracy    <       0.00138597 Ry

     iteration #  8     ecut=    80.00 Ry     beta= 0.40
     Davidson diagonalization with overlap
     ethr =  1.49E-06,  avg # of iterations =  6.0

     negative rho (up, down):  2.001E-08 0.000E+00

     total cpu time spent up to now is    97919.0 secs

     total energy              =    -142.07593314 Ry
     Harris-Foulkes estimate   =    -142.07607887 Ry
     estimated scf accuracy    <       0.00071284 Ry

     iteration #  9     ecut=    80.00 Ry     beta= 0.40
     Davidson diagonalization with overlap
     ethr =  7.66E-07,  avg # of iterations =  5.0

     total cpu time spent up to now is    97937.6 secs

     total energy              =    -142.07597568 Ry
     Harris-Foulkes estimate   =    -142.07601264 Ry
     estimated scf accuracy    <       0.00015567 Ry

     iteration # 10     ecut=    80.00 Ry     beta= 0.40
     Davidson diagonalization with overlap
     ethr =  1.67E-07,  avg # of iterations =  5.0

     total cpu time spent up to now is    97956.5 secs

     total energy              =    -142.07600150 Ry
     Harris-Foulkes estimate   =    -142.07600547 Ry
     estimated scf accuracy    <       0.00001637 Ry

     iteration # 11     ecut=    80.00 Ry     beta= 0.40
     Davidson diagonalization with overlap
     ethr =  1.76E-08,  avg # of iterations =  6.0

     total cpu time spent up to now is    97979.2 secs

     total energy              =    -142.07600341 Ry
     Harris-Foulkes estimate   =    -142.07600584 Ry
     estimated scf accuracy    <       0.00000930 Ry

     iteration # 12     ecut=    80.00 Ry     beta= 0.40
     Davidson diagonalization with overlap
     ethr =  1.00E-08,  avg # of iterations =  3.0

     total cpu time spent up to now is    97996.9 secs

     total energy              =    -142.07600398 Ry
     Harris-Foulkes estimate   =    -142.07600456 Ry
     estimated scf accuracy    <       0.00000212 Ry

     iteration # 13     ecut=    80.00 Ry     beta= 0.40
     Davidson diagonalization with overlap
     ethr =  2.28E-09,  avg # of iterations =  4.0

     total cpu time spent up to now is    98016.8 secs

     total energy              =    -142.07600386 Ry
     Harris-Foulkes estimate   =    -142.07600417 Ry
     estimated scf accuracy    <       0.00000154 Ry

     iteration # 14     ecut=    80.00 Ry     beta= 0.40
     Davidson diagonalization with overlap
     ethr =  1.65E-09,  avg # of iterations =  3.0

     total cpu time spent up to now is    98033.5 secs

     total energy              =    -142.07600371 Ry
     Harris-Foulkes estimate   =    -142.07600381 Ry
     estimated scf accuracy    <       0.00000028 Ry

     iteration # 15     ecut=    80.00 Ry     beta= 0.40
     Davidson diagonalization with overlap
     ethr =  3.00E-10,  avg # of iterations =  4.0

     total cpu time spent up to now is    98057.6 secs

     total energy              =    -142.07600351 Ry
     Harris-Foulkes estimate   =    -142.07600355 Ry
     estimated scf accuracy    <       0.00000010 Ry

     iteration # 16     ecut=    80.00 Ry     beta= 0.40
     Davidson diagonalization with overlap
     ethr =  1.05E-10,  avg # of iterations =  4.0

     total cpu time spent up to now is    98075.2 secs

     total energy              =    -142.07600329 Ry
     Harris-Foulkes estimate   =    -142.07600332 Ry
     estimated scf accuracy    <       0.00000005 Ry

     iteration # 17     ecut=    80.00 Ry     beta= 0.40
     Davidson diagonalization with overlap
     ethr =  5.21E-11,  avg # of iterations =  3.0

     total cpu time spent up to now is    98090.5 secs

     End of self-consistent calculation

          k = 0.0000 0.0000 0.0000 (324517 PWs)   bands (ev):

   -11.5960 -10.9755 -10.8661 -10.7532 -10.6935 -10.5870 -10.1831  -9.2670
    -9.2359  -9.1645  -8.9080  -8.7142  -8.7054  -8.3332  -8.1919  -8.1544
    -8.0865  -7.9059  -7.7283  -6.2427  -6.2045  -6.1201  -6.0617  -5.8997
    -5.7352  -5.6666  -5.4649  -5.3223  -5.3008  -5.1907  -5.1586  -4.8529
    -4.4746  -4.4746  -4.1972  -4.1911  -4.1173  -4.0527  -4.0162  -3.9622
    -3.9537  -3.7344  -3.6935  -3.6682  -2.5566  -2.5447  -2.4642  -2.2953
    -2.1825  -2.1528  -1.9203  -1.8509  -1.7320  -1.7224  -1.6609  -1.5610

     the Fermi energy is    -2.4325 ev

!    total energy              =    -142.07600317 Ry
     Harris-Foulkes estimate   =    -142.07600318 Ry
     estimated scf accuracy    <          4.5E-09 Ry

     The total energy is the sum of the following terms:

     one-electron contribution =    -684.10121811 Ry
     hartree contribution      =     350.79552052 Ry
     xc contribution           =     -63.66150651 Ry
     ewald contribution        =     254.92110854 Ry
     smearing contrib. (-TS)   =      -0.02990761 Ry

     convergence has been achieved in  17 iterations

     Forces acting on atoms (cartesian axes, Ry/au):

     atom    1 type  1   force =    -0.00000689   -0.00000002    0.00000000
     atom    2 type  1   force =     0.00000151   -0.00000061    0.00000000
     atom    3 type  1   force =     0.00001079   -0.00000555    0.00000000
     atom    4 type  1   force =     0.00000122    0.00000192    0.00000000
     atom    5 type  1   force =    -0.00000826    0.00000060    0.00000000
     atom    6 type  1   force =    -0.00000096   -0.00000199    0.00000000
     atom    7 type  1   force =     0.00001206   -0.00000164    0.00000000
     atom    8 type  1   force =    -0.00001293   -0.00001254    0.00000000
     atom    9 type  1   force =    -0.00001866   -0.00000393    0.00000000
     atom   10 type  1   force =     0.00000168    0.00000210    0.00000000
     atom   11 type  1   force =    -0.00000977   -0.00000309    0.00000000
     atom   12 type  1   force =     0.00000931   -0.00000180    0.00000000
     atom   13 type  1   force =    -0.00001105    0.00001265    0.00000000
     atom   14 type  1   force =    -0.00001745    0.00000513    0.00000000
     atom   15 type  1   force =    -0.00000470   -0.00000830    0.00000000
     atom   16 type  1   force =     0.00001761   -0.00000481    0.00000000
     atom   17 type  1   force =    -0.00001069   -0.00000102    0.00000000
     atom   18 type  1   force =    -0.00000780   -0.00000935    0.00000000
     atom   19 type  1   force =     0.00001716   -0.00000268    0.00000000
     atom   20 type  1   force =     0.00000178   -0.00000549    0.00000000
     atom   21 type  1   force =    -0.00000204    0.00000058    0.00000000
     atom   22 type  1   force =     0.00000271    0.00001040    0.00000000
     atom   23 type  1   force =     0.00000544    0.00001170    0.00000000
     atom   24 type  1   force =    -0.00000111   -0.00000329    0.00000000
     atom   25 type  1   force =     0.00000398   -0.00000218    0.00000000
     atom   26 type  1   force =    -0.00000008    0.00000666    0.00000000
     atom   27 type  1   force =     0.00000015    0.00000473    0.00000000
     atom   28 type  1   force =     0.00001177   -0.00000361    0.00000000
     atom   29 type  1   force =     0.00000913    0.00001102    0.00000000
     atom   30 type  1   force =     0.00000161   -0.00000011    0.00000000
     atom   31 type  1   force =     0.00000450    0.00000452    0.00000000

     Total force =     0.000061     Total SCF correction =     0.000061
     SCF correction compared to forces is large: reduce conv_thr to get better values


     Computing stress (Cartesian axis) and pressure

          total   stress  (Ry/bohr**3)                   (kbar)     P=    0.00
   0.00000004  -0.00000002   0.00000000          0.01     -0.00      0.00
  -0.00000002   0.00000001   0.00000000         -0.00      0.00      0.00
   0.00000000   0.00000000  -0.00000001          0.00      0.00     -0.00


     Writing output data file 3al_planar_2x2_vcr.save/
 
     init_run     :     51.47s CPU     54.62s WALL (       2 calls)
     electrons    :  67396.42s CPU  73277.97s WALL (     266 calls)
     update_pot   :   6665.56s CPU   6706.99s WALL (     264 calls)
     forces       :   5391.18s CPU   5460.70s WALL (     266 calls)
     stress       :  12326.17s CPU  12475.92s WALL (     266 calls)

     Called by init_run:
     wfcinit      :     24.03s CPU     26.70s WALL (       2 calls)
     potinit      :      9.89s CPU     10.13s WALL (       2 calls)
     hinit0       :     14.60s CPU     14.75s WALL (       2 calls)

     Called by electrons:
     c_bands      :  57575.79s CPU  62270.87s WALL (    2360 calls)
     sum_band     :   6674.53s CPU   7469.18s WALL (    2360 calls)
     v_of_rho     :   2801.40s CPU   3037.43s WALL (    2544 calls)
     mix_rho      :    492.75s CPU    614.00s WALL (    2360 calls)

     Called by c_bands:
     init_us_2    :    741.25s CPU    745.17s WALL (    4722 calls)
     cegterg      :  50261.43s CPU  54938.84s WALL (    2361 calls)

     Called by sum_band:

     Called by *egterg:
     h_psi        :  43911.09s CPU  48489.41s WALL (   15454 calls)
     g_psi        :    176.17s CPU    178.13s WALL (   13091 calls)
     cdiaghg      :    145.43s CPU    147.27s WALL (   15105 calls)

     Called by h_psi:
     h_psi:pot    :  43832.24s CPU  48336.60s WALL (   15454 calls)
     h_psi:calbec :   7004.09s CPU   7025.60s WALL (   15454 calls)
     vloc_psi     :  29606.66s CPU  34076.81s WALL (   15454 calls)
     add_vuspsi   :   7221.14s CPU   7234.00s WALL (   15454 calls)

     General routines
     calbec       :   8154.43s CPU   8179.13s WALL (   16784 calls)
     fft          :   2954.87s CPU   3162.32s WALL (   32436 calls)
     ffts         :    170.41s CPU    184.95s WALL (    2360 calls)
     fftw         :  31425.25s CPU  36607.85s WALL (  917746 calls)
 
     Parallel routines
     fft_scatt_xy :   4926.67s CPU   5970.77s WALL (  952542 calls)
     fft_scatt_yz :  15206.21s CPU  16334.30s WALL (  952542 calls)
 
     PWSCF        :     1d    1h32m CPU        1d    3h15m WALL

 
   This run was terminated on:  22:29:28  26Nov2020            

=------------------------------------------------------------------------------=
   JOB DONE.
=------------------------------------------------------------------------------=
