
     Program PWSCF v.6.3MaX starts on 25Nov2020 at 20:16: 3 

     This program is part of the open-source Quantum ESPRESSO suite
     for quantum simulation of materials; please cite
         "P. Giannozzi et al., J. Phys.:Condens. Matter 21 395502 (2009);
         "P. Giannozzi et al., J. Phys.:Condens. Matter 29 465901 (2017);
          URL http://www.quantum-espresso.org", 
     in publications or presentations arising from this work. More details at
     http://www.quantum-espresso.org/quote

     Parallel version (MPI), running on     8 processors

     MPI processes distributed on     5 nodes
     R & G space division:  proc/nbgrp/npool/nimage =       8
     Waiting for input...
     Reading input from standard input

     Current dimensions of program PWSCF are:
     Max number of different atomic species (ntypx) = 10
     Max number of k-points (npk) =  40000
     Max angular momentum in pseudopotentials (lmaxx) =  3

     Subspace diagonalization in iterative solution of the eigenvalue problem:
     a serial algorithm will be used

 
     Parallelization info
     --------------------
     sticks:   dense  smooth     PW     G-vecs:    dense   smooth      PW
     Min        3123    3123    778               448599   448599   56048
     Max        3124    3124    779               448604   448604   56052
     Sum       24985   24985   6229              3588803  3588803  448403
 


     bravais-lattice index     =            4
     lattice parameter (alat)  =      33.6810  a.u.
     unit-cell volume          =   37130.3117 (a.u.)^3
     number of atoms/cell      =           31
     number of atomic types    =            1
     number of electrons       =        93.00
     number of Kohn-Sham states=           56
     kinetic-energy cutoff     =      80.0000  Ry
     charge density cutoff     =     320.0000  Ry
     convergence threshold     =      1.0E-06
     mixing beta               =       0.4000
     number of iterations used =            8  plain     mixing
     Exchange-correlation      = PBE ( 1  4  3  4 0 0)
     nstep                     =          300


     celldm(1)=  33.680967  celldm(2)=   0.000000  celldm(3)=   1.122133
     celldm(4)=   0.000000  celldm(5)=   0.000000  celldm(6)=   0.000000

     crystal axes: (cart. coord. in units of alat)
               a(1) = (   1.000000   0.000000   0.000000 )  
               a(2) = (  -0.500000   0.866025   0.000000 )  
               a(3) = (   0.000000   0.000000   1.122133 )  

     reciprocal axes: (cart. coord. in units 2 pi/alat)
               b(1) = (  1.000000  0.577350  0.000000 )  
               b(2) = (  0.000000  1.154701  0.000000 )  
               b(3) = (  0.000000  0.000000  0.891160 )  


     PseudoPot. # 1 for Al read from file:
     ./Al.upf
     MD5 check sum: 4974d48a734c9d7d1eb6780a1419d19d
     Pseudo is Norm-conserving + core correction, Zval =  3.0
     Generated using ONCVPSP code by D. R. Hamann
     Using radial grid of 1876 points,  6 beta functions with: 
                l(1) =   0
                l(2) =   0
                l(3) =   1
                l(4) =   1
                l(5) =   2
                l(6) =   2

     atomic species   valence    mass     pseudopotential
        Al             3.00    29.98200     Al( 1.00)

      4 Sym. Ops. (no inversion) found ( 2 have fractional translation)



   Cartesian axes

     site n.     atom                  positions (alat units)
         1           Al  tau(   1) = (  -0.0000000   0.1443393   0.0000000  )
         2           Al  tau(   2) = (   0.1250015   0.0721696   0.0000000  )
         3           Al  tau(   3) = (  -0.1249997   0.3608472   0.0000000  )
         4           Al  tau(   4) = (   0.0000018   0.2886775   0.0000000  )
         5           Al  tau(   5) = (  -0.2499994   0.5773550   0.0000000  )
         6           Al  tau(   6) = (  -0.3749991   0.7938629   0.0000000  )
         7           Al  tau(   7) = (  -0.2499976   0.7216932   0.0000000  )
         8           Al  tau(   8) = (   0.2500011   0.1443403   0.0000000  )
         9           Al  tau(   9) = (   0.3750027   0.0721706   0.0000000  )
        10           Al  tau(  10) = (   0.1250014   0.3608482   0.0000000  )
        11           Al  tau(  11) = (   0.2500030   0.2886785   0.0000000  )
        12           Al  tau(  12) = (   0.0000017   0.5773560   0.0000000  )
        13           Al  tau(  13) = (   0.1250033   0.5051864   0.0000000  )
        14           Al  tau(  14) = (  -0.1249980   0.7938639   0.0000000  )
        15           Al  tau(  15) = (   0.0000036   0.7216942   0.0000000  )
        16           Al  tau(  16) = (   0.5000023   0.1443413   0.0000000  )
        17           Al  tau(  17) = (   0.6250038   0.0721717   0.0000000  )
        18           Al  tau(  18) = (   0.3750026   0.3608492   0.0000000  )
        19           Al  tau(  19) = (   0.5000041   0.2886795   0.0000000  )
        20           Al  tau(  20) = (   0.2500029   0.5773571   0.0000000  )
        21           Al  tau(  21) = (   0.3750044   0.5051874   0.0000000  )
        22           Al  tau(  22) = (   0.1250032   0.7938649   0.0000000  )
        23           Al  tau(  23) = (   0.2500047   0.7216953   0.0000000  )
        24           Al  tau(  24) = (   0.7500035   0.1443423   0.0000000  )
        25           Al  tau(  25) = (   0.8750050   0.0721727   0.0000000  )
        26           Al  tau(  26) = (   0.6250038   0.3608502   0.0000000  )
        27           Al  tau(  27) = (   0.7500053   0.2886805   0.0000000  )
        28           Al  tau(  28) = (   0.5000041   0.5773581   0.0000000  )
        29           Al  tau(  29) = (   0.6250056   0.5051884   0.0000000  )
        30           Al  tau(  30) = (   0.3750044   0.7938660   0.0000000  )
        31           Al  tau(  31) = (   0.5000059   0.7216963   0.0000000  )

     number of k points=     1  Methfessel-Paxton smearing, width (Ry)=  0.0500
                       cart. coord. in units 2pi/alat
        k(    1) = (   0.0000000   0.0000000   0.0000000), wk =   2.0000000

     Dense  grid:  3588803 G-vectors     FFT dimensions: ( 192, 192, 216)

     Estimated max dynamical RAM per process >       1.15 GB

     Estimated total dynamical RAM >       9.23 GB

     Initial potential from superposition of free atoms

     starting charge   92.92414, renormalised to   93.00000

     negative rho (up, down):  9.278E-05 0.000E+00
     Starting wfcs are  124 randomized atomic wfcs

     total cpu time spent up to now is       37.1 secs

     Self-consistent Calculation

     iteration #  1     ecut=    80.00 Ry     beta= 0.40
     Davidson diagonalization with overlap
     ethr =  1.00E-02,  avg # of iterations =  2.0

     negative rho (up, down):  1.149E-06 0.000E+00

     total cpu time spent up to now is       65.6 secs

     total energy              =    -140.64166023 Ry
     Harris-Foulkes estimate   =    -141.23594887 Ry
     estimated scf accuracy    <       1.54924081 Ry

     iteration #  2     ecut=    80.00 Ry     beta= 0.40
     Davidson diagonalization with overlap
     ethr =  1.67E-03,  avg # of iterations =  5.0

     negative rho (up, down):  5.134E-06 0.000E+00

     total cpu time spent up to now is       98.0 secs

     total energy              =    -140.21825052 Ry
     Harris-Foulkes estimate   =    -141.46035938 Ry
     estimated scf accuracy    <       6.76990034 Ry

     iteration #  3     ecut=    80.00 Ry     beta= 0.40
     Davidson diagonalization with overlap
     ethr =  1.67E-03,  avg # of iterations =  5.0

     negative rho (up, down):  4.643E-05 0.000E+00

     total cpu time spent up to now is      127.7 secs

     total energy              =    -140.82823815 Ry
     Harris-Foulkes estimate   =    -141.02307349 Ry
     estimated scf accuracy    <       1.16843832 Ry

     iteration #  4     ecut=    80.00 Ry     beta= 0.40
     Davidson diagonalization with overlap
     ethr =  1.26E-03,  avg # of iterations =  1.0

     negative rho (up, down):  7.297E-05 0.000E+00

     total cpu time spent up to now is      147.7 secs

     total energy              =    -140.90006347 Ry
     Harris-Foulkes estimate   =    -140.94429544 Ry
     estimated scf accuracy    <       0.15238679 Ry

     iteration #  5     ecut=    80.00 Ry     beta= 0.40
     Davidson diagonalization with overlap
     ethr =  1.64E-04,  avg # of iterations =  4.0

     negative rho (up, down):  8.182E-05 0.000E+00

     total cpu time spent up to now is      171.1 secs

     total energy              =    -140.91313865 Ry
     Harris-Foulkes estimate   =    -140.95575194 Ry
     estimated scf accuracy    <       0.30525302 Ry

     iteration #  6     ecut=    80.00 Ry     beta= 0.40
     Davidson diagonalization with overlap
     ethr =  1.64E-04,  avg # of iterations =  3.0

     negative rho (up, down):  1.060E-04 0.000E+00

     total cpu time spent up to now is      195.8 secs

     total energy              =    -140.93226490 Ry
     Harris-Foulkes estimate   =    -140.93461395 Ry
     estimated scf accuracy    <       0.01007755 Ry

     iteration #  7     ecut=    80.00 Ry     beta= 0.40
     Davidson diagonalization with overlap
     ethr =  1.08E-05,  avg # of iterations = 11.0

     negative rho (up, down):  1.288E-04 0.000E+00

     total cpu time spent up to now is      237.4 secs

     total energy              =    -140.93552133 Ry
     Harris-Foulkes estimate   =    -140.93691221 Ry
     estimated scf accuracy    <       0.00711134 Ry

     iteration #  8     ecut=    80.00 Ry     beta= 0.40
     Davidson diagonalization with overlap
     ethr =  7.65E-06,  avg # of iterations =  3.0

     negative rho (up, down):  1.325E-04 0.000E+00

     total cpu time spent up to now is      260.3 secs

     total energy              =    -140.93581818 Ry
     Harris-Foulkes estimate   =    -140.93650240 Ry
     estimated scf accuracy    <       0.00338341 Ry

     iteration #  9     ecut=    80.00 Ry     beta= 0.40
     Davidson diagonalization with overlap
     ethr =  3.64E-06,  avg # of iterations =  3.0

     negative rho (up, down):  1.344E-04 0.000E+00

     total cpu time spent up to now is      281.9 secs

     total energy              =    -140.93591946 Ry
     Harris-Foulkes estimate   =    -140.93607379 Ry
     estimated scf accuracy    <       0.00079551 Ry

     iteration # 10     ecut=    80.00 Ry     beta= 0.40
     Davidson diagonalization with overlap
     ethr =  8.55E-07,  avg # of iterations =  5.0

     negative rho (up, down):  1.357E-04 0.000E+00

     total cpu time spent up to now is      310.2 secs

     total energy              =    -140.93600373 Ry
     Harris-Foulkes estimate   =    -140.93617570 Ry
     estimated scf accuracy    <       0.00123834 Ry

     iteration # 11     ecut=    80.00 Ry     beta= 0.40
     Davidson diagonalization with overlap
     ethr =  8.55E-07,  avg # of iterations =  3.0

     negative rho (up, down):  1.371E-04 0.000E+00

     total cpu time spent up to now is      335.1 secs

     total energy              =    -140.93608825 Ry
     Harris-Foulkes estimate   =    -140.93611195 Ry
     estimated scf accuracy    <       0.00009662 Ry

     iteration # 12     ecut=    80.00 Ry     beta= 0.40
     Davidson diagonalization with overlap
     ethr =  1.04E-07,  avg # of iterations =  4.0

     negative rho (up, down):  1.375E-04 0.000E+00

     total cpu time spent up to now is      363.3 secs

     total energy              =    -140.93610553 Ry
     Harris-Foulkes estimate   =    -140.93610955 Ry
     estimated scf accuracy    <       0.00002041 Ry

     iteration # 13     ecut=    80.00 Ry     beta= 0.40
     Davidson diagonalization with overlap
     ethr =  2.19E-08,  avg # of iterations =  4.0

     negative rho (up, down):  1.377E-04 0.000E+00

     total cpu time spent up to now is      390.5 secs

     total energy              =    -140.93610647 Ry
     Harris-Foulkes estimate   =    -140.93611077 Ry
     estimated scf accuracy    <       0.00002457 Ry

     iteration # 14     ecut=    80.00 Ry     beta= 0.40
     Davidson diagonalization with overlap
     ethr =  2.19E-08,  avg # of iterations =  3.0

     negative rho (up, down):  1.378E-04 0.000E+00

     total cpu time spent up to now is      412.0 secs

     total energy              =    -140.93610810 Ry
     Harris-Foulkes estimate   =    -140.93610906 Ry
     estimated scf accuracy    <       0.00000385 Ry

     iteration # 15     ecut=    80.00 Ry     beta= 0.40
     Davidson diagonalization with overlap
     ethr =  4.14E-09,  avg # of iterations =  4.0

     negative rho (up, down):  1.380E-04 0.000E+00

     total cpu time spent up to now is      438.6 secs

     total energy              =    -140.93610824 Ry
     Harris-Foulkes estimate   =    -140.93610892 Ry
     estimated scf accuracy    <       0.00000321 Ry

     iteration # 16     ecut=    80.00 Ry     beta= 0.40
     Davidson diagonalization with overlap
     ethr =  3.45E-09,  avg # of iterations =  3.0

     negative rho (up, down):  1.382E-04 0.000E+00

     total cpu time spent up to now is      463.6 secs

     End of self-consistent calculation

          k = 0.0000 0.0000 0.0000 (448403 PWs)   bands (ev):

    -9.9530  -9.4484  -9.4332  -9.4327  -9.4262  -9.4257  -9.1459  -8.4049
    -8.4048  -8.3882  -8.3881  -8.3798  -8.3035  -8.2571  -8.2569  -7.5865
    -6.9325  -6.9324  -6.8234  -6.4867  -6.4773  -6.4773  -6.3701  -6.3700
    -5.4641  -4.8435  -4.8434  -4.8370  -4.7357  -4.7356  -4.4780  -4.4680
    -4.4430  -4.4430  -4.1227  -4.1223  -3.9779  -3.4712  -3.4689  -3.4687
    -3.4578  -3.4575  -3.4017  -3.2745  -3.2744  -3.2224  -3.2075  -2.9744
    -2.9654  -2.9652  -2.9389  -2.5198  -2.5197  -2.4494  -2.4493  -2.4315

     the Fermi energy is    -3.0911 ev

!    total energy              =    -140.93610801 Ry
     Harris-Foulkes estimate   =    -140.93610862 Ry
     estimated scf accuracy    <       0.00000068 Ry

     The total energy is the sum of the following terms:

     one-electron contribution =    -502.03612811 Ry
     hartree contribution      =     259.76319556 Ry
     xc contribution           =     -61.33575818 Ry
     ewald contribution        =     162.75359565 Ry
     smearing contrib. (-TS)   =      -0.08101294 Ry

     convergence has been achieved in  16 iterations

     negative rho (up, down):  1.382E-04 0.000E+00

     Forces acting on atoms (cartesian axes, Ry/au):

     atom    1 type  1   force =     0.00158274    0.00520884    0.00000000
     atom    2 type  1   force =    -0.00199809   -0.00115360    0.00000000
     atom    3 type  1   force =     0.00001434    0.01517015    0.00000000
     atom    4 type  1   force =     0.00320703   -0.00110552    0.00000000
     atom    5 type  1   force =     0.01314490   -0.00757265    0.00000000
     atom    6 type  1   force =     0.00530236   -0.00123372    0.00000000
     atom    7 type  1   force =     0.00064610    0.00333013    0.00000000
     atom    8 type  1   force =    -0.00046142   -0.00026640    0.00000000
     atom    9 type  1   force =     0.00000568    0.00132355    0.00000000
     atom   10 type  1   force =    -0.00117230    0.00063998    0.00000000
     atom   11 type  1   force =     0.00114907   -0.00065686    0.00000000
     atom   12 type  1   force =    -0.01312209   -0.00757604    0.00000000
     atom   13 type  1   force =     0.00253929   -0.00218558    0.00000000
     atom   14 type  1   force =    -0.00003191   -0.00133524    0.00000000
     atom   15 type  1   force =    -0.00062313    0.00329188    0.00000000
     atom   16 type  1   force =     0.00045414   -0.00027785    0.00000000
     atom   17 type  1   force =     0.00199332   -0.00117138    0.00000000
     atom   18 type  1   force =    -0.00001355    0.00053223    0.00000000
     atom   19 type  1   force =    -0.00114086   -0.00065867    0.00000000
     atom   20 type  1   force =    -0.00370236   -0.00394939    0.00000000
     atom   21 type  1   force =    -0.00001779    0.00231196    0.00000000
     atom   22 type  1   force =    -0.00527145   -0.00123165    0.00000000
     atom   23 type  1   force =     0.00185305    0.00106986    0.00000000
     atom   24 type  1   force =    -0.00153786    0.00520346    0.00000000
     atom   25 type  1   force =    -0.00002968   -0.00214151    0.00000000
     atom   26 type  1   force =     0.00114221    0.00065945    0.00000000
     atom   27 type  1   force =    -0.00318894   -0.00114279    0.00000000
     atom   28 type  1   force =     0.00373740   -0.00393355    0.00000000
     atom   29 type  1   force =    -0.00258415   -0.00219031    0.00000000
     atom   30 type  1   force =    -0.00000662   -0.00000382    0.00000000
     atom   31 type  1   force =    -0.00186944    0.00104505    0.00000000

     Total force =     0.031244     Total SCF correction =     0.000670


     Computing stress (Cartesian axis) and pressure


     negative rho (up, down):  1.382E-04 0.000E+00
          total   stress  (Ry/bohr**3)                   (kbar)     P=   -0.57
  -0.00000577   0.00000001   0.00000000         -0.85      0.00      0.00
   0.00000001  -0.00000579   0.00000000          0.00     -0.85      0.00
   0.00000000   0.00000000   0.00000001          0.00      0.00      0.00


     BFGS Geometry Optimization

     number of scf cycles    =   1
     number of bfgs steps    =   0

     enthalpy new            =    -140.9361080075 Ry

     new trust radius        =       0.0151701548 bohr
     new conv_thr            =       0.0000010000 Ry

     new unit-cell volume =  37119.58248 a.u.^3 (  5500.55455 Ang^3 )
     density =      0.28059 g/cm^3

CELL_PARAMETERS (alat= 33.68096681)
   0.999855671   0.000000282   0.000000000
  -0.499927592   0.865899989   0.000000000
   0.000000000   0.000000000   1.122132950

ATOMIC_POSITIONS (angstrom)
Al       0.000837571   2.574971738   0.000000000
Al       2.226548357   1.285497618   0.000000000
Al      -2.227564277   6.438546547   0.000000000
Al       0.001730385   5.143827332   0.000000000
Al      -4.448188896  10.284817594   0.000000000
Al      -6.679910397  14.146475802   0.000000000
Al      -4.454768615  12.862782792   0.000000000
Al       4.454933697   2.572094231   0.000000000
Al       6.682786251   1.286827729   0.000000000
Al       2.226985560   6.430878075   0.000000000
Al       4.455819212   5.144084170   0.000000000
Al      -0.006909091  10.284835245   0.000000000
Al       2.228982773   9.001579596   0.000000000
Al      -2.227555070  14.146441539   0.000000000
Al      -0.000262471  12.862782004   0.000000000
Al       8.910595817   2.572107622   0.000000000
Al      11.139015607   1.285527106   0.000000000
Al       6.682776351   6.430840510   0.000000000
Al       8.909785305   5.144102656   0.000000000
Al       4.453252590  10.286773562   0.000000000
Al       6.682807517   9.003978696   0.000000000
Al       2.224850379  14.146515795   0.000000000
Al       4.456225371  12.861625778   0.000000000
Al      13.364719542   2.575027233   0.000000000
Al      15.593122929   1.285033261   0.000000000
Al      11.138565559   6.430927274   0.000000000
Al      13.363879358   5.143865958   0.000000000
Al       8.912366670  10.286801388   0.000000000
Al      11.136627343   9.001615993   0.000000000
Al       6.682813703  14.147184889   0.000000000
Al       8.909433493  12.861632097   0.000000000



     Writing output data file 6al_planar_2x2_vcr.save/
     NEW-OLD atomic charge density approx. for the potential

     negative rho (up, down):  1.382E-04 0.000E+00
     extrapolated charge   92.97314, renormalised to   93.00000

     total cpu time spent up to now is      557.3 secs

     Self-consistent Calculation

     iteration #  1     ecut=    80.00 Ry     beta= 0.40
     Davidson diagonalization with overlap
     ethr =  1.00E-06,  avg # of iterations =  4.0

     negative rho (up, down):  1.383E-04 0.000E+00

     total cpu time spent up to now is      589.9 secs

     total energy              =    -140.93705810 Ry
     Harris-Foulkes estimate   =    -141.07003429 Ry
     estimated scf accuracy    <       0.00009324 Ry

     iteration #  2     ecut=    80.00 Ry     beta= 0.40
     Davidson diagonalization with overlap
     ethr =  1.00E-07,  avg # of iterations =  5.0

     negative rho (up, down):  1.383E-04 0.000E+00

     total cpu time spent up to now is      623.9 secs

     total energy              =    -140.93701136 Ry
     Harris-Foulkes estimate   =    -140.93721777 Ry
     estimated scf accuracy    <       0.00162267 Ry

     iteration #  3     ecut=    80.00 Ry     beta= 0.40
     Davidson diagonalization with overlap
     ethr =  1.00E-07,  avg # of iterations =  5.0

     negative rho (up, down):  1.383E-04 0.000E+00

     total cpu time spent up to now is      652.3 secs

     total energy              =    -140.93711080 Ry
     Harris-Foulkes estimate   =    -140.93711445 Ry
     estimated scf accuracy    <       0.00001484 Ry

     iteration #  4     ecut=    80.00 Ry     beta= 0.40
     Davidson diagonalization with overlap
     ethr =  1.60E-08,  avg # of iterations =  4.0

     negative rho (up, down):  1.382E-04 0.000E+00

     total cpu time spent up to now is      677.1 secs

     total energy              =    -140.93711077 Ry
     Harris-Foulkes estimate   =    -140.93711401 Ry
     estimated scf accuracy    <       0.00001366 Ry

     iteration #  5     ecut=    80.00 Ry     beta= 0.40
     Davidson diagonalization with overlap
     ethr =  1.47E-08,  avg # of iterations =  4.0

     negative rho (up, down):  1.382E-04 0.000E+00

     total cpu time spent up to now is      702.6 secs

     total energy              =    -140.93711167 Ry
     Harris-Foulkes estimate   =    -140.93711385 Ry
     estimated scf accuracy    <       0.00001371 Ry

     iteration #  6     ecut=    80.00 Ry     beta= 0.40
     Davidson diagonalization with overlap
     ethr =  1.47E-08,  avg # of iterations =  3.0

     negative rho (up, down):  1.381E-04 0.000E+00

     total cpu time spent up to now is      732.7 secs

     total energy              =    -140.93711255 Ry
     Harris-Foulkes estimate   =    -140.93711309 Ry
     estimated scf accuracy    <       0.00000226 Ry

     iteration #  7     ecut=    80.00 Ry     beta= 0.40
     Davidson diagonalization with overlap
     ethr =  2.43E-09,  avg # of iterations =  5.0

     negative rho (up, down):  1.381E-04 0.000E+00

     total cpu time spent up to now is      760.6 secs

     total energy              =    -140.93711253 Ry
     Harris-Foulkes estimate   =    -140.93711331 Ry
     estimated scf accuracy    <       0.00000565 Ry

     iteration #  8     ecut=    80.00 Ry     beta= 0.40
     Davidson diagonalization with overlap
     ethr =  2.43E-09,  avg # of iterations =  4.0

     negative rho (up, down):  1.381E-04 0.000E+00

     total cpu time spent up to now is      783.3 secs

     End of self-consistent calculation

          k = 0.0000 0.0000 0.0000 (448403 PWs)   bands (ev):

    -9.9533  -9.4485  -9.4337  -9.4333  -9.4257  -9.4252  -9.1440  -8.4041
    -8.4040  -8.3846  -8.3845  -8.3829  -8.3050  -8.2546  -8.2544  -7.5853
    -6.9324  -6.9322  -6.8229  -6.4824  -6.4776  -6.4775  -6.3722  -6.3722
    -5.4694  -4.8396  -4.8396  -4.8351  -4.7365  -4.7364  -4.4766  -4.4673
    -4.4431  -4.4431  -4.1254  -4.1250  -3.9780  -3.4710  -3.4678  -3.4676
    -3.4584  -3.4581  -3.4000  -3.2732  -3.2731  -3.2212  -3.2176  -2.9704
    -2.9636  -2.9634  -2.9412  -2.5170  -2.5170  -2.4460  -2.4460  -2.4337

     the Fermi energy is    -3.0908 ev

!    total energy              =    -140.93711276 Ry
     Harris-Foulkes estimate   =    -140.93711285 Ry
     estimated scf accuracy    <       0.00000018 Ry

     The total energy is the sum of the following terms:

     one-electron contribution =    -502.12445212 Ry
     hartree contribution      =     259.80688060 Ry
     xc contribution           =     -61.33392339 Ry
     ewald contribution        =     162.79506441 Ry
     smearing contrib. (-TS)   =      -0.08068225 Ry

     convergence has been achieved in   8 iterations

     negative rho (up, down):  1.381E-04 0.000E+00

     Forces acting on atoms (cartesian axes, Ry/au):

     atom    1 type  1   force =     0.00117262    0.00445538    0.00000000
     atom    2 type  1   force =    -0.00194175   -0.00112107    0.00000000
     atom    3 type  1   force =     0.00000867    0.01498742    0.00000000
     atom    4 type  1   force =     0.00208630   -0.00037471    0.00000000
     atom    5 type  1   force =     0.01298382   -0.00748620    0.00000000
     atom    6 type  1   force =     0.00444478   -0.00121217    0.00000000
     atom    7 type  1   force =     0.00071864    0.00199415    0.00000000
     atom    8 type  1   force =    -0.00064995   -0.00037525    0.00000000
     atom    9 type  1   force =    -0.00000403    0.00106656    0.00000000
     atom   10 type  1   force =    -0.00083411    0.00045635    0.00000000
     atom   11 type  1   force =     0.00092166   -0.00053677    0.00000000
     atom   12 type  1   force =    -0.01296789   -0.00748702    0.00000000
     atom   13 type  1   force =     0.00137029   -0.00159306    0.00000000
     atom   14 type  1   force =    -0.00002185   -0.00095054    0.00000000
     atom   15 type  1   force =    -0.00069449    0.00198324    0.00000000
     atom   16 type  1   force =     0.00064580   -0.00038745    0.00000000
     atom   17 type  1   force =     0.00195501   -0.00114996    0.00000000
     atom   18 type  1   force =    -0.00001264    0.00075300    0.00000000
     atom   19 type  1   force =    -0.00091477   -0.00052814    0.00000000
     atom   20 type  1   force =    -0.00325129   -0.00322019    0.00000000
     atom   21 type  1   force =    -0.00001839    0.00226807    0.00000000
     atom   22 type  1   force =    -0.00441441   -0.00120561    0.00000000
     atom   23 type  1   force =     0.00137050    0.00079126    0.00000000
     atom   24 type  1   force =    -0.00114798    0.00444628    0.00000000
     atom   25 type  1   force =    -0.00002876   -0.00159418    0.00000000
     atom   26 type  1   force =     0.00082173    0.00047443    0.00000000
     atom   27 type  1   force =    -0.00208419   -0.00040095    0.00000000
     atom   28 type  1   force =     0.00327660   -0.00321732    0.00000000
     atom   29 type  1   force =    -0.00138933   -0.00160448    0.00000000
     atom   30 type  1   force =    -0.00000562   -0.00000325    0.00000000
     atom   31 type  1   force =    -0.00139498    0.00077218    0.00000000

     Total force =     0.029283     Total SCF correction =     0.000265


     Computing stress (Cartesian axis) and pressure


     negative rho (up, down):  1.381E-04 0.000E+00
          total   stress  (Ry/bohr**3)                   (kbar)     P=   -0.58
  -0.00000591   0.00000001   0.00000000         -0.87      0.00      0.00
   0.00000001  -0.00000592   0.00000000          0.00     -0.87      0.00
   0.00000000   0.00000000   0.00000001          0.00      0.00      0.00


     number of scf cycles    =   2
     number of bfgs steps    =   1

     enthalpy old            =    -140.9361080075 Ry
     enthalpy new            =    -140.9371127570 Ry

     CASE: enthalpy_new < enthalpy_old


     WARNING: bfgs curvature condition failed, Theta= 0.855
     new trust radius        =       0.0227519406 bohr
     new conv_thr            =       0.0000010000 Ry

     new unit-cell volume =  37103.13144 a.u.^3 (  5498.11675 Ang^3 )
     density =      0.28071 g/cm^3

CELL_PARAMETERS (alat= 33.68096681)
   0.999634309   0.000000673   0.000000000
  -0.499816572   0.865707698   0.000000000
   0.000000000   0.000000000   1.122132950

ATOMIC_POSITIONS (angstrom)
Al       0.001901642   2.578193354   0.000000000
Al       2.224486375   1.284307132   0.000000000
Al      -2.227059908   6.449154448   0.000000000
Al       0.003743711   5.142162405   0.000000000
Al      -4.436771266  10.276523165   0.000000000
Al      -6.674609633  14.142359226   0.000000000
Al      -4.453225095  12.861931576   0.000000000
Al       4.453486683   2.571258789   0.000000000
Al       6.681306986   1.287476340   0.000000000
Al       2.225724464   6.429873440   0.000000000
Al       4.455641294   5.142478776   0.000000000
Al      -0.017317509  10.276541089   0.000000000
Al       2.229946932   8.998128187   0.000000000
Al      -2.227076924  14.142424432   0.000000000
Al      -0.000790665  12.861915420   0.000000000
Al       8.909081519   2.571264397   0.000000000
Al      11.138124607   1.284320417   0.000000000
Al       6.681288955   6.429950681   0.000000000
Al       8.907014095   5.142502689   0.000000000
Al       4.449533167  10.281695231   0.000000000
Al       6.681316992   9.003810396   0.000000000
Al       2.220571446  14.142406557   0.000000000
Al       4.456487479  12.859492253   0.000000000
Al      13.360724347   2.578247928   0.000000000
Al      15.589647929   1.283311934   0.000000000
Al      11.136857300   6.429940994   0.000000000
Al      13.358917580   5.142181885   0.000000000
Al       8.913158283  10.281731072   0.000000000
Al      11.132688011   8.998160984   0.000000000
Al       6.681334900  14.144046240   0.000000000
Al       8.906205280  12.859483299   0.000000000



     Writing output data file 6al_planar_2x2_vcr.save/
     NEW-OLD atomic charge density approx. for the potential

     negative rho (up, down):  1.381E-04 0.000E+00
     extrapolated charge   92.95880, renormalised to   93.00000

     total cpu time spent up to now is      880.7 secs

     Self-consistent Calculation

     iteration #  1     ecut=    80.00 Ry     beta= 0.40
     Davidson diagonalization with overlap
     ethr =  1.00E-06,  avg # of iterations =  5.0

     negative rho (up, down):  1.384E-04 0.000E+00

     total cpu time spent up to now is      915.6 secs

     total energy              =    -140.93841806 Ry
     Harris-Foulkes estimate   =    -141.14243322 Ry
     estimated scf accuracy    <       0.00011137 Ry

     iteration #  2     ecut=    80.00 Ry     beta= 0.40
     Davidson diagonalization with overlap
     ethr =  1.20E-07,  avg # of iterations =  5.0

     negative rho (up, down):  1.383E-04 0.000E+00

     total cpu time spent up to now is      951.2 secs

     total energy              =    -140.93839957 Ry
     Harris-Foulkes estimate   =    -140.93857337 Ry
     estimated scf accuracy    <       0.00136767 Ry

     iteration #  3     ecut=    80.00 Ry     beta= 0.40
     Davidson diagonalization with overlap
     ethr =  1.20E-07,  avg # of iterations =  4.0

     negative rho (up, down):  1.383E-04 0.000E+00

     total cpu time spent up to now is      980.5 secs

     total energy              =    -140.93847918 Ry
     Harris-Foulkes estimate   =    -140.93848516 Ry
     estimated scf accuracy    <       0.00002419 Ry

     iteration #  4     ecut=    80.00 Ry     beta= 0.40
     Davidson diagonalization with overlap
     ethr =  2.60E-08,  avg # of iterations =  4.0

     negative rho (up, down):  1.382E-04 0.000E+00

     total cpu time spent up to now is     1005.3 secs

     total energy              =    -140.93847906 Ry
     Harris-Foulkes estimate   =    -140.93848306 Ry
     estimated scf accuracy    <       0.00001639 Ry

     iteration #  5     ecut=    80.00 Ry     beta= 0.40
     Davidson diagonalization with overlap
     ethr =  1.76E-08,  avg # of iterations =  4.0

     negative rho (up, down):  1.381E-04 0.000E+00

     total cpu time spent up to now is     1030.7 secs

     total energy              =    -140.93847883 Ry
     Harris-Foulkes estimate   =    -140.93848441 Ry
     estimated scf accuracy    <       0.00003699 Ry

     iteration #  6     ecut=    80.00 Ry     beta= 0.40
     Davidson diagonalization with overlap
     ethr =  1.76E-08,  avg # of iterations =  3.0

     negative rho (up, down):  1.381E-04 0.000E+00

     total cpu time spent up to now is     1052.9 secs

     total energy              =    -140.93848190 Ry
     Harris-Foulkes estimate   =    -140.93848206 Ry
     estimated scf accuracy    <       0.00000175 Ry

     iteration #  7     ecut=    80.00 Ry     beta= 0.40
     Davidson diagonalization with overlap
     ethr =  1.88E-09,  avg # of iterations =  5.0

     negative rho (up, down):  1.380E-04 0.000E+00

     total cpu time spent up to now is     1082.5 secs

     End of self-consistent calculation

          k = 0.0000 0.0000 0.0000 (448403 PWs)   bands (ev):

    -9.9541  -9.4491  -9.4357  -9.4352  -9.4240  -9.4236  -9.1415  -8.4033
    -8.4032  -8.3871  -8.3801  -8.3799  -8.3071  -8.2509  -8.2507  -7.5838
    -6.9324  -6.9323  -6.8227  -6.4780  -6.4779  -6.4767  -6.3751  -6.3750
    -5.4773  -4.8345  -4.8344  -4.8326  -4.7375  -4.7374  -4.4748  -4.4662
    -4.4436  -4.4436  -4.1294  -4.1290  -3.9782  -3.4711  -3.4670  -3.4666
    -3.4589  -3.4584  -3.3975  -3.2714  -3.2713  -3.2329  -3.2197  -2.9653
    -2.9611  -2.9608  -2.9437  -2.5134  -2.5132  -2.4416  -2.4415  -2.4367

     the Fermi energy is    -3.0906 ev

!    total energy              =    -140.93848173 Ry
     Harris-Foulkes estimate   =    -140.93848232 Ry
     estimated scf accuracy    <       0.00000081 Ry

     The total energy is the sum of the following terms:

     one-electron contribution =    -502.26102846 Ry
     hartree contribution      =     259.87490290 Ry
     xc contribution           =     -61.33152721 Ry
     ewald contribution        =     162.85932991 Ry
     smearing contrib. (-TS)   =      -0.08015885 Ry

     convergence has been achieved in   7 iterations

     negative rho (up, down):  1.380E-04 0.000E+00

     Forces acting on atoms (cartesian axes, Ry/au):

     atom    1 type  1   force =     0.00067091    0.00344531    0.00000000
     atom    2 type  1   force =    -0.00190745   -0.00110127    0.00000000
     atom    3 type  1   force =     0.00001924    0.01482661    0.00000000
     atom    4 type  1   force =     0.00060416    0.00057438    0.00000000
     atom    5 type  1   force =     0.01284984   -0.00739664    0.00000000
     atom    6 type  1   force =     0.00331918   -0.00114163    0.00000000
     atom    7 type  1   force =     0.00079951    0.00023603    0.00000000
     atom    8 type  1   force =    -0.00091563   -0.00052864    0.00000000
     atom    9 type  1   force =    -0.00000660    0.00073039    0.00000000
     atom   10 type  1   force =    -0.00041065    0.00022387    0.00000000
     atom   11 type  1   force =     0.00062924   -0.00037091    0.00000000
     atom   12 type  1   force =    -0.01282863   -0.00740662    0.00000000
     atom   13 type  1   force =    -0.00021280   -0.00079552    0.00000000
     atom   14 type  1   force =    -0.00001144   -0.00046757    0.00000000
     atom   15 type  1   force =    -0.00079534    0.00021347    0.00000000
     atom   16 type  1   force =     0.00090305   -0.00052999    0.00000000
     atom   17 type  1   force =     0.00191526   -0.00110760    0.00000000
     atom   18 type  1   force =    -0.00000746    0.00104706    0.00000000
     atom   19 type  1   force =    -0.00062692   -0.00036195    0.00000000
     atom   20 type  1   force =    -0.00265926   -0.00229247    0.00000000
     atom   21 type  1   force =    -0.00000158    0.00221247    0.00000000
     atom   22 type  1   force =    -0.00331497   -0.00115676    0.00000000
     atom   23 type  1   force =     0.00074636    0.00043091    0.00000000
     atom   24 type  1   force =    -0.00064056    0.00343987    0.00000000
     atom   25 type  1   force =    -0.00001547   -0.00085566    0.00000000
     atom   26 type  1   force =     0.00039443    0.00022773    0.00000000
     atom   27 type  1   force =    -0.00059273    0.00055628    0.00000000
     atom   28 type  1   force =     0.00265873   -0.00227468    0.00000000
     atom   29 type  1   force =     0.00018539   -0.00079146    0.00000000
     atom   30 type  1   force =     0.00000096    0.00000055    0.00000000
     atom   31 type  1   force =    -0.00074876    0.00041444    0.00000000

     Total force =     0.027556     Total SCF correction =     0.000680


     Computing stress (Cartesian axis) and pressure


     negative rho (up, down):  1.380E-04 0.000E+00
          total   stress  (Ry/bohr**3)                   (kbar)     P=   -0.60
  -0.00000609   0.00000001   0.00000000         -0.90      0.00      0.00
   0.00000001  -0.00000610   0.00000000          0.00     -0.90      0.00
   0.00000000   0.00000000   0.00000002          0.00      0.00      0.00


     number of scf cycles    =   3
     number of bfgs steps    =   2

     enthalpy old            =    -140.9371127570 Ry
     enthalpy new            =    -140.9384817268 Ry

     CASE: enthalpy_new < enthalpy_old

     new trust radius        =       0.0341203397 bohr
     new conv_thr            =       0.0000010000 Ry

     new unit-cell volume =  37077.94624 a.u.^3 (  5494.38469 Ang^3 )
     density =      0.28090 g/cm^3

CELL_PARAMETERS (alat= 33.68096681)
   0.999295289   0.000001205   0.000000000
  -0.499646601   0.865413298   0.000000000
   0.000000000   0.000000000   1.122132950

ATOMIC_POSITIONS (angstrom)
Al       0.003195829   2.582406767   0.000000000
Al       2.221385752   1.282516987   0.000000000
Al      -2.226280503   6.465011656   0.000000000
Al       0.005857204   5.140214171   0.000000000
Al      -4.419619368  10.264022373   0.000000000
Al      -6.667284178  14.136126140   0.000000000
Al      -4.450826130  12.859488866   0.000000000
Al       4.451115761   2.569889924   0.000000000
Al       6.679040358   1.288238023   0.000000000
Al       2.224073140   6.428181074   0.000000000
Al       4.455167616   5.140134965   0.000000000
Al      -0.032921442  10.264034035   0.000000000
Al       2.230402223   8.993374472   0.000000000
Al      -2.226338769  14.136593341   0.000000000
Al      -0.001650409  12.859439398   0.000000000
Al       8.906910958   2.569890955   0.000000000
Al      11.136697366   1.282521430   0.000000000
Al       6.679014250   6.428757610   0.000000000
Al       8.902967303   5.140166261   0.000000000
Al       4.444270443  10.274560647   0.000000000
Al       6.679045404   9.003473838   0.000000000
Al       2.214790813  14.136169005   0.000000000
Al       4.456470829  12.855984521   0.000000000
Al      13.354945477   2.582461942   0.000000000
Al      15.584335316   1.281169469   0.000000000
Al      11.133956625   6.428266264   0.000000000
Al      13.352295118   5.140208734   0.000000000
Al       8.913918302  10.274619373   0.000000000
Al      11.127667991   8.993412309   0.000000000
Al       6.679073651  14.139242576   0.000000000
Al       8.901693545  12.855953636   0.000000000



     Writing output data file 6al_planar_2x2_vcr.save/
     NEW-OLD atomic charge density approx. for the potential

     negative rho (up, down):  1.380E-04 0.000E+00
     extrapolated charge   92.93688, renormalised to   93.00000

     total cpu time spent up to now is     1175.0 secs

     Self-consistent Calculation

     iteration #  1     ecut=    80.00 Ry     beta= 0.40
     Davidson diagonalization with overlap
     ethr =  1.00E-06,  avg # of iterations =  5.0

     negative rho (up, down):  1.385E-04 0.000E+00

     total cpu time spent up to now is     1216.6 secs

     total energy              =    -140.94021135 Ry
     Harris-Foulkes estimate   =    -141.25292867 Ry
     estimated scf accuracy    <       0.00025214 Ry

     iteration #  2     ecut=    80.00 Ry     beta= 0.40
     Davidson diagonalization with overlap
     ethr =  2.71E-07,  avg # of iterations = 12.0

     negative rho (up, down):  1.384E-04 0.000E+00

     total cpu time spent up to now is     1254.6 secs

     total energy              =    -140.94011331 Ry
     Harris-Foulkes estimate   =    -140.94056610 Ry
     estimated scf accuracy    <       0.00357427 Ry

     iteration #  3     ecut=    80.00 Ry     beta= 0.40
     Davidson diagonalization with overlap
     ethr =  2.71E-07,  avg # of iterations =  4.0

     negative rho (up, down):  1.383E-04 0.000E+00

     total cpu time spent up to now is     1282.6 secs

     total energy              =    -140.94032272 Ry
     Harris-Foulkes estimate   =    -140.94033958 Ry
     estimated scf accuracy    <       0.00007282 Ry

     iteration #  4     ecut=    80.00 Ry     beta= 0.40
     Davidson diagonalization with overlap
     ethr =  7.83E-08,  avg # of iterations =  4.0

     negative rho (up, down):  1.382E-04 0.000E+00

     total cpu time spent up to now is     1306.8 secs

     total energy              =    -140.94032218 Ry
     Harris-Foulkes estimate   =    -140.94033420 Ry
     estimated scf accuracy    <       0.00005712 Ry

     iteration #  5     ecut=    80.00 Ry     beta= 0.40
     Davidson diagonalization with overlap
     ethr =  6.14E-08,  avg # of iterations =  4.0

     negative rho (up, down):  1.381E-04 0.000E+00

     total cpu time spent up to now is     1330.0 secs

     total energy              =    -140.94032539 Ry
     Harris-Foulkes estimate   =    -140.94033372 Ry
     estimated scf accuracy    <       0.00005229 Ry

     iteration #  6     ecut=    80.00 Ry     beta= 0.40
     Davidson diagonalization with overlap
     ethr =  5.62E-08,  avg # of iterations =  3.0

     negative rho (up, down):  1.379E-04 0.000E+00

     total cpu time spent up to now is     1354.0 secs

     total energy              =    -140.94032891 Ry
     Harris-Foulkes estimate   =    -140.94033038 Ry
     estimated scf accuracy    <       0.00000738 Ry

     iteration #  7     ecut=    80.00 Ry     beta= 0.40
     Davidson diagonalization with overlap
     ethr =  7.94E-09,  avg # of iterations =  5.0

     negative rho (up, down):  1.379E-04 0.000E+00

     total cpu time spent up to now is     1379.6 secs

     total energy              =    -140.94032884 Ry
     Harris-Foulkes estimate   =    -140.94033163 Ry
     estimated scf accuracy    <       0.00001932 Ry

     iteration #  8     ecut=    80.00 Ry     beta= 0.40
     Davidson diagonalization with overlap
     ethr =  7.94E-09,  avg # of iterations =  3.0

     negative rho (up, down):  1.379E-04 0.000E+00

     total cpu time spent up to now is     1402.8 secs

     End of self-consistent calculation

          k = 0.0000 0.0000 0.0000 (448403 PWs)   bands (ev):

    -9.9557  -9.4502  -9.4397  -9.4392  -9.4216  -9.4212  -9.1386  -8.4046
    -8.4030  -8.3925  -8.3746  -8.3732  -8.3106  -8.2452  -8.2447  -7.5820
    -6.9329  -6.9327  -6.8238  -6.4788  -6.4783  -6.4695  -6.3785  -6.3781
    -5.4886  -4.8302  -4.8280  -4.8276  -4.7388  -4.7383  -4.4726  -4.4647
    -4.4448  -4.4448  -4.1355  -4.1349  -3.9790  -3.4714  -3.4676  -3.4669
    -3.4585  -3.4582  -3.3935  -3.2695  -3.2694  -3.2550  -3.2178  -2.9610
    -2.9575  -2.9572  -2.9443  -2.5088  -2.5087  -2.4452  -2.4403  -2.4358

     the Fermi energy is    -3.0905 ev

!    total energy              =    -140.94033018 Ry
     Harris-Foulkes estimate   =    -140.94033040 Ry
     estimated scf accuracy    <       0.00000054 Ry

     The total energy is the sum of the following terms:

     one-electron contribution =    -502.46933135 Ry
     hartree contribution      =     259.97817473 Ry
     xc contribution           =     -61.32833404 Ry
     ewald contribution        =     162.95868637 Ry
     smearing contrib. (-TS)   =      -0.07952588 Ry

     convergence has been achieved in   8 iterations

     negative rho (up, down):  1.379E-04 0.000E+00

     Forces acting on atoms (cartesian axes, Ry/au):

     atom    1 type  1   force =     0.00008861    0.00223419    0.00000000
     atom    2 type  1   force =    -0.00183751   -0.00106089    0.00000000
     atom    3 type  1   force =    -0.00003568    0.01461824    0.00000000
     atom    4 type  1   force =    -0.00153922    0.00177365    0.00000000
     atom    5 type  1   force =     0.01264193   -0.00734002    0.00000000
     atom    6 type  1   force =     0.00197918   -0.00104036    0.00000000
     atom    7 type  1   force =     0.00076642   -0.00221982    0.00000000
     atom    8 type  1   force =    -0.00120961   -0.00069837    0.00000000
     atom    9 type  1   force =     0.00007721    0.00030447    0.00000000
     atom   10 type  1   force =     0.00032277   -0.00018332    0.00000000
     atom   11 type  1   force =     0.00030228   -0.00008537    0.00000000
     atom   12 type  1   force =    -0.01277475   -0.00737551    0.00000000
     atom   13 type  1   force =    -0.00215812    0.00044267    0.00000000
     atom   14 type  1   force =     0.00000262    0.00037118    0.00000000
     atom   15 type  1   force =    -0.00069570   -0.00209032    0.00000000
     atom   16 type  1   force =     0.00088658   -0.00065165    0.00000000
     atom   17 type  1   force =     0.00219061   -0.00117509    0.00000000
     atom   18 type  1   force =    -0.00012105    0.00109363    0.00000000
     atom   19 type  1   force =    -0.00033623   -0.00019412    0.00000000
     atom   20 type  1   force =    -0.00191614   -0.00108906    0.00000000
     atom   21 type  1   force =     0.00007765    0.00248467    0.00000000
     atom   22 type  1   force =    -0.00190122   -0.00111490    0.00000000
     atom   23 type  1   force =    -0.00005169   -0.00002984    0.00000000
     atom   24 type  1   force =    -0.00014228    0.00202395    0.00000000
     atom   25 type  1   force =    -0.00005670   -0.00006473    0.00000000
     atom   26 type  1   force =    -0.00006193   -0.00003575    0.00000000
     atom   27 type  1   force =     0.00146080    0.00197366    0.00000000
     atom   28 type  1   force =     0.00168165   -0.00113519    0.00000000
     atom   29 type  1   force =     0.00243964    0.00027826    0.00000000
     atom   30 type  1   force =     0.00000426    0.00000246    0.00000000
     atom   31 type  1   force =    -0.00008440   -0.00001674    0.00000000

     Total force =     0.026974     Total SCF correction =     0.000362


     Computing stress (Cartesian axis) and pressure


     negative rho (up, down):  1.379E-04 0.000E+00
          total   stress  (Ry/bohr**3)                   (kbar)     P=   -0.62
  -0.00000639  -0.00000011   0.00000000         -0.94     -0.02      0.00
  -0.00000011  -0.00000627   0.00000000         -0.02     -0.92      0.00
   0.00000000   0.00000000   0.00000005          0.00      0.00      0.01


     number of scf cycles    =   4
     number of bfgs steps    =   3

     enthalpy old            =    -140.9384817268 Ry
     enthalpy new            =    -140.9403301766 Ry

     CASE: enthalpy_new < enthalpy_old

     new trust radius        =       0.0511631206 bohr
     new conv_thr            =       0.0000010000 Ry

     new unit-cell volume =  37039.70099 a.u.^3 (  5488.71733 Ang^3 )
     density =      0.28119 g/cm^3

CELL_PARAMETERS (alat= 33.68096681)
   0.998778160  -0.000001598   0.000000000
  -0.499390464   0.864969657   0.000000000
   0.000000000   0.000000000   1.122132950

ATOMIC_POSITIONS (angstrom)
Al       0.004838404   2.588102001   0.000000000
Al       2.216747583   1.279839139   0.000000000
Al      -2.225153609   6.488683349   0.000000000
Al       0.007860039   5.137887258   0.000000000
Al      -4.393990438  10.245255275   0.000000000
Al      -6.656965493  14.126793855   0.000000000
Al      -4.447274699  12.854479668   0.000000000
Al       4.447365046   2.567724429   0.000000000
Al       6.675636006   1.289131436   0.000000000
Al       2.221962051   6.425378611   0.000000000
Al       4.454239158   5.136739985   0.000000000
Al      -0.056368103  10.245225646   0.000000000
Al       2.230035658   8.986871894   0.000000000
Al      -2.225256121  14.128259127   0.000000000
Al      -0.002899893  12.854466063   0.000000000
Al       8.903507432   2.567733533   0.000000000
Al      11.134651733   1.279723252   0.000000000
Al       6.675444121   6.426888734   0.000000000
Al       8.896939334   5.136685993   0.000000000
Al       4.436681851  10.264419377   0.000000000
Al       6.675599293   9.003101320   0.000000000
Al       2.206779131  14.126760528   0.000000000
Al       4.455949121  12.850411861   0.000000000
Al      13.346386553   2.587971597   0.000000000
Al      15.576197966   1.278279985   0.000000000
Al      11.129264355   6.425557142   0.000000000
Al      13.343316298   5.137941436   0.000000000
Al       8.914410358  10.264452235   0.000000000
Al      11.121215059   8.986770025   0.000000000
Al       6.675574576  14.131950912   0.000000000
Al       8.895122502  12.850351171   0.000000000



     Writing output data file 6al_planar_2x2_vcr.save/
     NEW-OLD atomic charge density approx. for the potential

     negative rho (up, down):  1.379E-04 0.000E+00
     extrapolated charge   92.90405, renormalised to   93.00000

     total cpu time spent up to now is     1494.4 secs

     Self-consistent Calculation

     iteration #  1     ecut=    80.00 Ry     beta= 0.40
     Davidson diagonalization with overlap
     ethr =  1.00E-06,  avg # of iterations =  6.0

     negative rho (up, down):  1.385E-04 0.000E+00

     total cpu time spent up to now is     1537.9 secs

     total energy              =    -140.94274026 Ry
     Harris-Foulkes estimate   =    -141.41835874 Ry
     estimated scf accuracy    <       0.00032138 Ry

     iteration #  2     ecut=    80.00 Ry     beta= 0.40
     Davidson diagonalization with overlap
     ethr =  3.46E-07,  avg # of iterations =  5.0

     negative rho (up, down):  1.384E-04 0.000E+00

     total cpu time spent up to now is     1569.1 secs

     total energy              =    -140.94278867 Ry
     Harris-Foulkes estimate   =    -140.94309124 Ry
     estimated scf accuracy    <       0.00198537 Ry

     iteration #  3     ecut=    80.00 Ry     beta= 0.40
     Davidson diagonalization with overlap
     ethr =  3.46E-07,  avg # of iterations =  4.0

     negative rho (up, down):  1.382E-04 0.000E+00

     total cpu time spent up to now is     1594.0 secs

     total energy              =    -140.94292433 Ry
     Harris-Foulkes estimate   =    -140.94296006 Ry
     estimated scf accuracy    <       0.00018030 Ry

     iteration #  4     ecut=    80.00 Ry     beta= 0.40
     Davidson diagonalization with overlap
     ethr =  1.94E-07,  avg # of iterations =  1.0

     negative rho (up, down):  1.380E-04 0.000E+00

     total cpu time spent up to now is     1617.7 secs

     total energy              =    -140.94292753 Ry
     Harris-Foulkes estimate   =    -140.94294206 Ry
     estimated scf accuracy    <       0.00006114 Ry

     iteration #  5     ecut=    80.00 Ry     beta= 0.40
     Davidson diagonalization with overlap
     ethr =  6.57E-08,  avg # of iterations =  4.0

     negative rho (up, down):  1.378E-04 0.000E+00

     total cpu time spent up to now is     1645.2 secs

     total energy              =    -140.94292322 Ry
     Harris-Foulkes estimate   =    -140.94294986 Ry
     estimated scf accuracy    <       0.00018111 Ry

     iteration #  6     ecut=    80.00 Ry     beta= 0.40
     Davidson diagonalization with overlap
     ethr =  6.57E-08,  avg # of iterations =  4.0

     negative rho (up, down):  1.377E-04 0.000E+00

     total cpu time spent up to now is     1667.9 secs

     total energy              =    -140.94293591 Ry
     Harris-Foulkes estimate   =    -140.94293860 Ry
     estimated scf accuracy    <       0.00001599 Ry

     iteration #  7     ecut=    80.00 Ry     beta= 0.40
     Davidson diagonalization with overlap
     ethr =  1.72E-08,  avg # of iterations =  3.0

     negative rho (up, down):  1.377E-04 0.000E+00

     total cpu time spent up to now is     1691.3 secs

     total energy              =    -140.94293736 Ry
     Harris-Foulkes estimate   =    -140.94293826 Ry
     estimated scf accuracy    <       0.00000533 Ry

     iteration #  8     ecut=    80.00 Ry     beta= 0.40
     Davidson diagonalization with overlap
     ethr =  5.73E-09,  avg # of iterations =  4.0

     negative rho (up, down):  1.377E-04 0.000E+00

     total cpu time spent up to now is     1718.2 secs

     total energy              =    -140.94293770 Ry
     Harris-Foulkes estimate   =    -140.94293832 Ry
     estimated scf accuracy    <       0.00000425 Ry

     iteration #  9     ecut=    80.00 Ry     beta= 0.40
     Davidson diagonalization with overlap
     ethr =  4.57E-09,  avg # of iterations =  3.0

     negative rho (up, down):  1.376E-04 0.000E+00

     total cpu time spent up to now is     1741.9 secs

     End of self-consistent calculation

          k = 0.0000 0.0000 0.0000 (448403 PWs)   bands (ev):

    -9.9573  -9.4514  -9.4443  -9.4440  -9.4173  -9.4170  -9.1345  -8.4035
    -8.4021  -8.3988  -8.3678  -8.3664  -8.3142  -8.2354  -8.2351  -7.5797
    -6.9333  -6.9331  -6.8242  -6.4786  -6.4779  -6.4592  -6.3821  -6.3813
    -5.5051  -4.8250  -4.8183  -4.8181  -4.7383  -4.7381  -4.4689  -4.4617
    -4.4456  -4.4455  -4.1439  -4.1435  -3.9795  -3.4716  -3.4692  -3.4688
    -3.4556  -3.4553  -3.3875  -3.2891  -3.2654  -3.2651  -3.2155  -2.9608
    -2.9517  -2.9514  -2.9361  -2.5013  -2.5012  -2.4443  -2.4429  -2.4278

     the Fermi energy is    -3.0898 ev

!    total energy              =    -140.94293757 Ry
     Harris-Foulkes estimate   =    -140.94293809 Ry
     estimated scf accuracy    <       0.00000071 Ry

     The total energy is the sum of the following terms:

     one-electron contribution =    -502.78859326 Ry
     hartree contribution      =     260.13554057 Ry
     xc contribution           =     -61.32358206 Ry
     ewald contribution        =     163.11189903 Ry
     smearing contrib. (-TS)   =      -0.07820186 Ry

     convergence has been achieved in   9 iterations

     negative rho (up, down):  1.376E-04 0.000E+00

     Forces acting on atoms (cartesian axes, Ry/au):

     atom    1 type  1   force =    -0.00070290    0.00057754    0.00000000
     atom    2 type  1   force =    -0.00177049   -0.00102219    0.00000000
     atom    3 type  1   force =     0.00000492    0.01470748    0.00000000
     atom    4 type  1   force =    -0.00416196    0.00345977    0.00000000
     atom    5 type  1   force =     0.01273951   -0.00734948    0.00000000
     atom    6 type  1   force =     0.00014872   -0.00089750    0.00000000
     atom    7 type  1   force =     0.00091527   -0.00533425    0.00000000
     atom    8 type  1   force =    -0.00162056   -0.00093563    0.00000000
     atom    9 type  1   force =     0.00005128   -0.00017049    0.00000000
     atom   10 type  1   force =     0.00090099   -0.00048918    0.00000000
     atom   11 type  1   force =    -0.00012201    0.00012966    0.00000000
     atom   12 type  1   force =    -0.01287036   -0.00743071    0.00000000
     atom   13 type  1   force =    -0.00492070    0.00182836    0.00000000
     atom   14 type  1   force =     0.00002686    0.00102487    0.00000000
     atom   15 type  1   force =    -0.00087695   -0.00517563    0.00000000
     atom   16 type  1   force =     0.00137210   -0.00091391    0.00000000
     atom   17 type  1   force =     0.00206156   -0.00113595    0.00000000
     atom   18 type  1   force =    -0.00010541    0.00164523    0.00000000
     atom   19 type  1   force =     0.00011245    0.00006492    0.00000000
     atom   20 type  1   force =    -0.00085017    0.00043203    0.00000000
     atom   21 type  1   force =     0.00004702    0.00235334    0.00000000
     atom   22 type  1   force =    -0.00005093   -0.00095229    0.00000000
     atom   23 type  1   force =    -0.00105876   -0.00061127    0.00000000
     atom   24 type  1   force =     0.00068143    0.00041604    0.00000000
     atom   25 type  1   force =    -0.00006586    0.00111879    0.00000000
     atom   26 type  1   force =    -0.00067777   -0.00039131    0.00000000
     atom   27 type  1   force =     0.00402945    0.00360037    0.00000000
     atom   28 type  1   force =     0.00070101    0.00038212    0.00000000
     atom   29 type  1   force =     0.00513273    0.00168942    0.00000000
     atom   30 type  1   force =    -0.00000645   -0.00000372    0.00000000
     atom   31 type  1   force =     0.00093597   -0.00061643    0.00000000

     Total force =     0.029348     Total SCF correction =     0.000611


     Computing stress (Cartesian axis) and pressure


     negative rho (up, down):  1.376E-04 0.000E+00
          total   stress  (Ry/bohr**3)                   (kbar)     P=   -0.65
  -0.00000673  -0.00000008   0.00000000         -0.99     -0.01      0.00
  -0.00000008  -0.00000664   0.00000000         -0.01     -0.98      0.00
  -0.00000000  -0.00000000   0.00000004         -0.00     -0.00      0.01


     number of scf cycles    =   5
     number of bfgs steps    =   4

     enthalpy old            =    -140.9403301766 Ry
     enthalpy new            =    -140.9429375702 Ry

     CASE: enthalpy_new < enthalpy_old

     new trust radius        =       0.0767048417 bohr
     new conv_thr            =       0.0000010000 Ry

     new unit-cell volume =  36981.97923 a.u.^3 (  5480.16385 Ang^3 )
     density =      0.28163 g/cm^3

CELL_PARAMETERS (alat= 33.68096681)
   0.997998006  -0.000004394   0.000000000
  -0.499002808   0.864298217   0.000000000
   0.000000000   0.000000000   1.122132950

ATOMIC_POSITIONS (angstrom)
Al       0.006967860   2.595882059   0.000000000
Al       2.209828879   1.275844624   0.000000000
Al      -2.223412080   6.524101395   0.000000000
Al       0.009751262   5.135097615   0.000000000
Al      -4.355537445  10.217087171   0.000000000
Al      -6.642253761  14.112780685   0.000000000
Al      -4.441835714  12.845545064   0.000000000
Al       4.441559404   2.564372511   0.000000000
Al       6.670474949   1.290282548   0.000000000
Al       2.218988647   6.421040310   0.000000000
Al       4.452655521   5.131694795   0.000000000
Al      -0.091477612  10.216976959   0.000000000
Al       2.228279712   8.977647815   0.000000000
Al      -2.223590601  14.115885917   0.000000000
Al      -0.004856853  12.845590122   0.000000000
Al       8.898619545   2.564375956   0.000000000
Al      11.131402355   1.275572961   0.000000000
Al       6.670092456   6.424334417   0.000000000
Al       8.888064570   5.131562118   0.000000000
Al       4.425795548  10.249811724   0.000000000
Al       6.670380346   9.002362366   0.000000000
Al       2.195594706  14.112669208   0.000000000
Al       4.454737970  12.841734402   0.000000000
Al      13.333862687   2.595550491   0.000000000
Al      15.563921810   1.274481530   0.000000000
Al      11.121929688   6.421322413   0.000000000
Al      13.330892448   5.135190942   0.000000000
Al       8.914711964  10.249816701   0.000000000
Al      11.112621161   8.977385833   0.000000000
Al       6.670307653  14.120931822   0.000000000
Al       8.885694865  12.841618852   0.000000000



     Writing output data file 6al_planar_2x2_vcr.save/
     NEW-OLD atomic charge density approx. for the potential

     negative rho (up, down):  1.377E-04 0.000E+00
     extrapolated charge   92.85496, renormalised to   93.00000

     total cpu time spent up to now is     1836.1 secs

     Self-consistent Calculation

     iteration #  1     ecut=    80.00 Ry     beta= 0.40
     Davidson diagonalization with overlap
     ethr =  1.00E-06,  avg # of iterations =  8.0

     negative rho (up, down):  1.387E-04 0.000E+00

     total cpu time spent up to now is     1879.8 secs

     total energy              =    -140.94624745 Ry
     Harris-Foulkes estimate   =    -141.66596916 Ry
     estimated scf accuracy    <       0.00064672 Ry

     iteration #  2     ecut=    80.00 Ry     beta= 0.40
     Davidson diagonalization with overlap
     ethr =  6.95E-07,  avg # of iterations =  5.0

     negative rho (up, down):  1.384E-04 0.000E+00

     total cpu time spent up to now is     1914.9 secs

     total energy              =    -140.94639128 Ry
     Harris-Foulkes estimate   =    -140.94696392 Ry
     estimated scf accuracy    <       0.00367438 Ry

     iteration #  3     ecut=    80.00 Ry     beta= 0.40
     Davidson diagonalization with overlap
     ethr =  6.95E-07,  avg # of iterations =  4.0

     negative rho (up, down):  1.382E-04 0.000E+00

     total cpu time spent up to now is     1940.8 secs

     total energy              =    -140.94664363 Ry
     Harris-Foulkes estimate   =    -140.94671517 Ry
     estimated scf accuracy    <       0.00035599 Ry

     iteration #  4     ecut=    80.00 Ry     beta= 0.40
     Davidson diagonalization with overlap
     ethr =  3.83E-07,  avg # of iterations =  3.0

     negative rho (up, down):  1.377E-04 0.000E+00

     total cpu time spent up to now is     1961.7 secs

     total energy              =    -140.94665723 Ry
     Harris-Foulkes estimate   =    -140.94667786 Ry
     estimated scf accuracy    <       0.00010089 Ry

     iteration #  5     ecut=    80.00 Ry     beta= 0.40
     Davidson diagonalization with overlap
     ethr =  1.08E-07,  avg # of iterations =  5.0

     negative rho (up, down):  1.374E-04 0.000E+00

     total cpu time spent up to now is     1987.1 secs

     total energy              =    -140.94663883 Ry
     Harris-Foulkes estimate   =    -140.94668944 Ry
     estimated scf accuracy    <       0.00030716 Ry

     iteration #  6     ecut=    80.00 Ry     beta= 0.40
     Davidson diagonalization with overlap
     ethr =  1.08E-07,  avg # of iterations =  4.0

     negative rho (up, down):  1.372E-04 0.000E+00

     total cpu time spent up to now is     2013.3 secs

     total energy              =    -140.94666253 Ry
     Harris-Foulkes estimate   =    -140.94667179 Ry
     estimated scf accuracy    <       0.00006127 Ry

     iteration #  7     ecut=    80.00 Ry     beta= 0.40
     Davidson diagonalization with overlap
     ethr =  6.59E-08,  avg # of iterations =  1.0

     negative rho (up, down):  1.372E-04 0.000E+00

     total cpu time spent up to now is     2033.6 secs

     total energy              =    -140.94666608 Ry
     Harris-Foulkes estimate   =    -140.94666792 Ry
     estimated scf accuracy    <       0.00001139 Ry

     iteration #  8     ecut=    80.00 Ry     beta= 0.40
     Davidson diagonalization with overlap
     ethr =  1.22E-08,  avg # of iterations =  4.0

     negative rho (up, down):  1.373E-04 0.000E+00

     total cpu time spent up to now is     2058.1 secs

     total energy              =    -140.94666713 Ry
     Harris-Foulkes estimate   =    -140.94666818 Ry
     estimated scf accuracy    <       0.00000646 Ry

     iteration #  9     ecut=    80.00 Ry     beta= 0.40
     Davidson diagonalization with overlap
     ethr =  6.95E-09,  avg # of iterations =  3.0

     negative rho (up, down):  1.373E-04 0.000E+00

     total cpu time spent up to now is     2081.6 secs

     total energy              =    -140.94666750 Ry
     Harris-Foulkes estimate   =    -140.94666776 Ry
     estimated scf accuracy    <       0.00000213 Ry

     iteration # 10     ecut=    80.00 Ry     beta= 0.40
     Davidson diagonalization with overlap
     ethr =  2.29E-09,  avg # of iterations =  4.0

     negative rho (up, down):  1.373E-04 0.000E+00

     total cpu time spent up to now is     2108.9 secs

     total energy              =    -140.94666735 Ry
     Harris-Foulkes estimate   =    -140.94666772 Ry
     estimated scf accuracy    <       0.00000317 Ry

     iteration # 11     ecut=    80.00 Ry     beta= 0.40
     Davidson diagonalization with overlap
     ethr =  2.29E-09,  avg # of iterations =  1.0

     negative rho (up, down):  1.372E-04 0.000E+00

     total cpu time spent up to now is     2130.5 secs

     End of self-consistent calculation

          k = 0.0000 0.0000 0.0000 (448403 PWs)   bands (ev):

    -9.9597  -9.4534  -9.4508  -9.4505  -9.4114  -9.4112  -9.1299  -8.4067
    -8.4023  -8.4013  -8.3601  -8.3589  -8.3189  -8.2194  -8.2191  -7.5778
    -6.9341  -6.9338  -6.8255  -6.4776  -6.4766  -6.4445  -6.3860  -6.3849
    -5.5296  -4.8177  -4.8057  -4.8055  -4.7360  -4.7357  -4.4637  -4.4571
    -4.4465  -4.4464  -4.1564  -4.1560  -3.9804  -3.4724  -3.4722  -3.4713
    -3.4504  -3.4502  -3.3780  -3.3415  -3.2592  -3.2591  -3.2132  -2.9661
    -2.9428  -2.9425  -2.9165  -2.4909  -2.4907  -2.4495  -2.4400  -2.4173

     the Fermi energy is    -3.0885 ev

!    total energy              =    -140.94666670 Ry
     Harris-Foulkes estimate   =    -140.94666747 Ry
     estimated scf accuracy    <       0.00000090 Ry

     The total energy is the sum of the following terms:

     one-electron contribution =    -503.27716728 Ry
     hartree contribution      =     260.37521603 Ry
     xc contribution           =     -61.31708641 Ry
     ewald contribution        =     163.34823527 Ry
     smearing contrib. (-TS)   =      -0.07586432 Ry

     convergence has been achieved in  11 iterations

     negative rho (up, down):  1.372E-04 0.000E+00

     Forces acting on atoms (cartesian axes, Ry/au):

     atom    1 type  1   force =    -0.00173278   -0.00167584    0.00000000
     atom    2 type  1   force =    -0.00171436   -0.00098979    0.00000000
     atom    3 type  1   force =     0.00003126    0.01505589    0.00000000
     atom    4 type  1   force =    -0.00765485    0.00575872    0.00000000
     atom    5 type  1   force =     0.01305441   -0.00750087    0.00000000
     atom    6 type  1   force =    -0.00231771   -0.00066271    0.00000000
     atom    7 type  1   force =     0.00115977   -0.00950865    0.00000000
     atom    8 type  1   force =    -0.00213522   -0.00123277    0.00000000
     atom    9 type  1   force =     0.00001180   -0.00078411    0.00000000
     atom   10 type  1   force =     0.00168110   -0.00091646    0.00000000
     atom   11 type  1   force =    -0.00067316    0.00040227    0.00000000
     atom   12 type  1   force =    -0.01314767   -0.00759081    0.00000000
     atom   13 type  1   force =    -0.00868061    0.00367414    0.00000000
     atom   14 type  1   force =     0.00004687    0.00191410    0.00000000
     atom   15 type  1   force =    -0.00115841   -0.00935470    0.00000000
     atom   16 type  1   force =     0.00199283   -0.00126557    0.00000000
     atom   17 type  1   force =     0.00190649   -0.00107904    0.00000000
     atom   18 type  1   force =    -0.00009960    0.00235863    0.00000000
     atom   19 type  1   force =     0.00062531    0.00036103    0.00000000
     atom   20 type  1   force =     0.00060650    0.00243201    0.00000000
     atom   21 type  1   force =     0.00001877    0.00219059    0.00000000
     atom   22 type  1   force =     0.00240943   -0.00069076    0.00000000
     atom   23 type  1   force =    -0.00237929   -0.00137369    0.00000000
     atom   24 type  1   force =     0.00170313   -0.00178238    0.00000000
     atom   25 type  1   force =    -0.00004096    0.00266545    0.00000000
     atom   26 type  1   force =    -0.00146597   -0.00084638    0.00000000
     atom   27 type  1   force =     0.00755072    0.00583272    0.00000000
     atom   28 type  1   force =    -0.00069202    0.00236614    0.00000000
     atom   29 type  1   force =     0.00882664    0.00362276    0.00000000
     atom   30 type  1   force =    -0.00002030   -0.00001172    0.00000000
     atom   31 type  1   force =     0.00228787   -0.00136819    0.00000000

     Total force =     0.036441     Total SCF correction =     0.000814


     Computing stress (Cartesian axis) and pressure


     negative rho (up, down):  1.372E-04 0.000E+00
          total   stress  (Ry/bohr**3)                   (kbar)     P=   -0.70
  -0.00000722  -0.00000006   0.00000000         -1.06     -0.01      0.00
  -0.00000006  -0.00000715   0.00000000         -0.01     -1.05      0.00
   0.00000000   0.00000000   0.00000001          0.00      0.00      0.00


     number of scf cycles    =   6
     number of bfgs steps    =   5

     enthalpy old            =    -140.9429375702 Ry
     enthalpy new            =    -140.9466667008 Ry

     CASE: enthalpy_new < enthalpy_old

     new trust radius        =       0.1149672044 bohr
     new conv_thr            =       0.0000010000 Ry

     new unit-cell volume =  36895.18155 a.u.^3 (  5467.30176 Ang^3 )
     density =      0.28229 g/cm^3

CELL_PARAMETERS (alat= 33.68096681)
   0.996824484  -0.000007282   0.000000000
  -0.498418549   0.863286250   0.000000000
   0.000000000   0.000000000   1.122132950

ATOMIC_POSITIONS (angstrom)
Al       0.009829019   2.606710086   0.000000000
Al       2.199494348   1.269877980   0.000000000
Al      -2.220767767   6.577117884   0.000000000
Al       0.011451527   5.131659710   0.000000000
Al      -4.297888236  10.174832342   0.000000000
Al      -6.621032445  14.091807861   0.000000000
Al      -4.433549506  12.830699885   0.000000000
Al       4.432704760   2.559260237   0.000000000
Al       6.662681692   1.291822283   0.000000000
Al       2.214733801   6.414392111   0.000000000
Al       4.450092342   5.124175728   0.000000000
Al      -0.144024903  10.174614335   0.000000000
Al       2.224372362   8.964369331   0.000000000
Al      -2.221062107  14.097488542   0.000000000
Al      -0.007896607  12.830808875   0.000000000
Al       8.891497556   2.559222411   0.000000000
Al      11.126340850   1.269412971   0.000000000
Al       6.662068398   6.420743258   0.000000000
Al       8.874887924   5.123954536   0.000000000
Al       4.410030365  10.228538164   0.000000000
Al       6.662514884   9.001058885   0.000000000
Al       2.179702136  14.091616249   0.000000000
Al       4.452494304  12.828414590   0.000000000
Al      13.315374910   2.606150615   0.000000000
Al      15.545479210   1.269320969   0.000000000
Al      11.110654995   6.414812881   0.000000000
Al      13.313401728   5.131763402   0.000000000
Al       8.914648090  10.228505605   0.000000000
Al      11.100907500   8.963952090   0.000000000
Al       6.662395213  14.104339099   0.000000000
Al       8.872004387  12.828227246   0.000000000



     Writing output data file 6al_planar_2x2_vcr.save/
     NEW-OLD atomic charge density approx. for the potential

     negative rho (up, down):  1.374E-04 0.000E+00
     extrapolated charge   92.78139, renormalised to   93.00000

     total cpu time spent up to now is     2227.9 secs

     Self-consistent Calculation

     iteration #  1     ecut=    80.00 Ry     beta= 0.40
     Davidson diagonalization with overlap
     ethr =  1.00E-06,  avg # of iterations = 12.0

     negative rho (up, down):  1.390E-04 0.000E+00

     total cpu time spent up to now is     2277.3 secs

     total energy              =    -140.95104589 Ry
     Harris-Foulkes estimate   =    -142.03778156 Ry
     estimated scf accuracy    <       0.00150622 Ry

     iteration #  2     ecut=    80.00 Ry     beta= 0.40
     Davidson diagonalization with overlap
     ethr =  1.62E-06,  avg # of iterations =  8.0

     negative rho (up, down):  1.386E-04 0.000E+00

     total cpu time spent up to now is     2316.0 secs

     total energy              =    -140.95125540 Ry
     Harris-Foulkes estimate   =    -140.95303056 Ry
     estimated scf accuracy    <       0.01239724 Ry

     iteration #  3     ecut=    80.00 Ry     beta= 0.40
     Davidson diagonalization with overlap
     ethr =  1.62E-06,  avg # of iterations =  5.0

     negative rho (up, down):  1.382E-04 0.000E+00

     total cpu time spent up to now is     2343.4 secs

     total energy              =    -140.95203183 Ry
     Harris-Foulkes estimate   =    -140.95218277 Ry
     estimated scf accuracy    <       0.00068879 Ry

     iteration #  4     ecut=    80.00 Ry     beta= 0.40
     Davidson diagonalization with overlap
     ethr =  7.41E-07,  avg # of iterations =  1.0

     negative rho (up, down):  1.379E-04 0.000E+00

     total cpu time spent up to now is     2363.8 secs

     total energy              =    -140.95204267 Ry
     Harris-Foulkes estimate   =    -140.95211138 Ry
     estimated scf accuracy    <       0.00036172 Ry

     iteration #  5     ecut=    80.00 Ry     beta= 0.40
     Davidson diagonalization with overlap
     ethr =  3.89E-07,  avg # of iterations =  4.0

     negative rho (up, down):  1.373E-04 0.000E+00

     total cpu time spent up to now is     2387.8 secs

     total energy              =    -140.95202926 Ry
     Harris-Foulkes estimate   =    -140.95212077 Ry
     estimated scf accuracy    <       0.00055477 Ry

     iteration #  6     ecut=    80.00 Ry     beta= 0.40
     Davidson diagonalization with overlap
     ethr =  3.89E-07,  avg # of iterations =  3.0

     negative rho (up, down):  1.368E-04 0.000E+00

     total cpu time spent up to now is     2411.4 secs

     total energy              =    -140.95206597 Ry
     Harris-Foulkes estimate   =    -140.95208159 Ry
     estimated scf accuracy    <       0.00007820 Ry

     iteration #  7     ecut=    80.00 Ry     beta= 0.40
     Davidson diagonalization with overlap
     ethr =  8.41E-08,  avg # of iterations = 19.0

     negative rho (up, down):  1.367E-04 0.000E+00

     total cpu time spent up to now is     2442.5 secs

     total energy              =    -140.95195837 Ry
     Harris-Foulkes estimate   =    -140.95197491 Ry
     estimated scf accuracy    <       0.00018348 Ry

     iteration #  8     ecut=    80.00 Ry     beta= 0.40
     Davidson diagonalization with overlap
     ethr =  8.41E-08,  avg # of iterations =  1.0

     negative rho (up, down):  1.367E-04 0.000E+00

     total cpu time spent up to now is     2463.0 secs

     total energy              =    -140.95196316 Ry
     Harris-Foulkes estimate   =    -140.95196382 Ry
     estimated scf accuracy    <       0.00004964 Ry

     iteration #  9     ecut=    80.00 Ry     beta= 0.40
     Davidson diagonalization with overlap
     ethr =  5.34E-08,  avg # of iterations =  1.0

     negative rho (up, down):  1.368E-04 0.000E+00

     total cpu time spent up to now is     2483.6 secs

     total energy              =    -140.95196021 Ry
     Harris-Foulkes estimate   =    -140.95196366 Ry
     estimated scf accuracy    <       0.00004621 Ry

     iteration # 10     ecut=    80.00 Ry     beta= 0.40
     Davidson diagonalization with overlap
     ethr =  4.97E-08,  avg # of iterations =  1.0

     negative rho (up, down):  1.368E-04 0.000E+00

     total cpu time spent up to now is     2505.4 secs

     total energy              =    -140.95195681 Ry
     Harris-Foulkes estimate   =    -140.95196092 Ry
     estimated scf accuracy    <       0.00002640 Ry

     iteration # 11     ecut=    80.00 Ry     beta= 0.40
     Davidson diagonalization with overlap
     ethr =  2.84E-08,  avg # of iterations =  4.0

     negative rho (up, down):  1.367E-04 0.000E+00

     total cpu time spent up to now is     2536.4 secs

     total energy              =    -140.95195848 Ry
     Harris-Foulkes estimate   =    -140.95196090 Ry
     estimated scf accuracy    <       0.00001853 Ry

     iteration # 12     ecut=    80.00 Ry     beta= 0.40
     Davidson diagonalization with overlap
     ethr =  1.99E-08,  avg # of iterations =  3.0

     negative rho (up, down):  1.367E-04 0.000E+00

     total cpu time spent up to now is     2560.2 secs

     total energy              =    -140.95195986 Ry
     Harris-Foulkes estimate   =    -140.95196021 Ry
     estimated scf accuracy    <       0.00000198 Ry

     iteration # 13     ecut=    80.00 Ry     beta= 0.40
     Davidson diagonalization with overlap
     ethr =  2.13E-09,  avg # of iterations =  5.0

     negative rho (up, down):  1.367E-04 0.000E+00

     total cpu time spent up to now is     2590.7 secs

     total energy              =    -140.95196002 Ry
     Harris-Foulkes estimate   =    -140.95196031 Ry
     estimated scf accuracy    <       0.00000180 Ry

     iteration # 14     ecut=    80.00 Ry     beta= 0.40
     Davidson diagonalization with overlap
     ethr =  1.93E-09,  avg # of iterations =  1.0

     negative rho (up, down):  1.366E-04 0.000E+00

     total cpu time spent up to now is     2613.7 secs

     total energy              =    -140.95195982 Ry
     Harris-Foulkes estimate   =    -140.95196009 Ry
     estimated scf accuracy    <       0.00000105 Ry

     iteration # 15     ecut=    80.00 Ry     beta= 0.40
     Davidson diagonalization with overlap
     ethr =  1.12E-09,  avg # of iterations =  4.0

     negative rho (up, down):  1.367E-04 0.000E+00

     total cpu time spent up to now is     2640.7 secs

     End of self-consistent calculation

          k = 0.0000 0.0000 0.0000 (448403 PWs)   bands (ev):

    -9.9650  -9.4616  -9.4613  -9.4572  -9.4057  -9.4054  -9.1264  -8.4193
    -8.4039  -8.4029  -8.3520  -8.3511  -8.3264  -8.1939  -8.1937  -7.5797
    -6.9370  -6.9366  -6.8302  -6.4767  -6.4758  -6.4255  -6.3908  -6.3899
    -5.5680  -4.8091  -4.7923  -4.7922  -4.7301  -4.7300  -4.4574  -4.4515
    -4.4494  -4.4492  -4.1763  -4.1759  -3.9826  -3.4777  -3.4775  -3.4726
    -3.4442  -3.4440  -3.4232  -3.3641  -3.2523  -3.2520  -3.2124  -2.9758
    -2.9306  -2.9303  -2.8859  -2.4781  -2.4776  -2.4582  -2.4394  -2.4389

     the Fermi energy is    -3.0877 ev

!    total energy              =    -140.95195960 Ry
     Harris-Foulkes estimate   =    -140.95196001 Ry
     estimated scf accuracy    <       0.00000046 Ry

     The total energy is the sum of the following terms:

     one-electron contribution =    -504.03248405 Ry
     hartree contribution      =     260.74568899 Ry
     xc contribution           =     -61.30938403 Ry
     ewald contribution        =     163.71669733 Ry
     smearing contrib. (-TS)   =      -0.07247785 Ry

     convergence has been achieved in  15 iterations

     negative rho (up, down):  1.367E-04 0.000E+00

     Forces acting on atoms (cartesian axes, Ry/au):

     atom    1 type  1   force =    -0.00304445   -0.00505543    0.00000000
     atom    2 type  1   force =    -0.00217822   -0.00125760    0.00000000
     atom    3 type  1   force =     0.00000668    0.01546068    0.00000000
     atom    4 type  1   force =    -0.01242771    0.00911153    0.00000000
     atom    5 type  1   force =     0.01339268   -0.00772456    0.00000000
     atom    6 type  1   force =    -0.00590036   -0.00010886    0.00000000
     atom    7 type  1   force =     0.00167696   -0.01531848    0.00000000
     atom    8 type  1   force =    -0.00244121   -0.00140943    0.00000000
     atom    9 type  1   force =    -0.00015302   -0.00177623    0.00000000
     atom   10 type  1   force =     0.00286816   -0.00157654    0.00000000
     atom   11 type  1   force =    -0.00161477    0.00075559    0.00000000
     atom   12 type  1   force =    -0.01335825   -0.00771239    0.00000000
     atom   13 type  1   force =    -0.01415066    0.00614262    0.00000000
     atom   14 type  1   force =     0.00006876    0.00327217    0.00000000
     atom   15 type  1   force =    -0.00175567   -0.01532614    0.00000000
     atom   16 type  1   force =     0.00280887   -0.00146599    0.00000000
     atom   17 type  1   force =     0.00186512   -0.00113218    0.00000000
     atom   18 type  1   force =     0.00013485    0.00316555    0.00000000
     atom   19 type  1   force =     0.00160479    0.00092653    0.00000000
     atom   20 type  1   force =     0.00280746    0.00506989    0.00000000
     atom   21 type  1   force =    -0.00004794    0.00218133    0.00000000
     atom   22 type  1   force =     0.00579438   -0.00010362    0.00000000
     atom   23 type  1   force =    -0.00405895   -0.00234344    0.00000000
     atom   24 type  1   force =     0.00302916   -0.00476788    0.00000000
     atom   25 type  1   force =     0.00011848    0.00475920    0.00000000
     atom   26 type  1   force =    -0.00303959   -0.00175491    0.00000000
     atom   27 type  1   force =     0.01247364    0.00892057    0.00000000
     atom   28 type  1   force =    -0.00261453    0.00500727    0.00000000
     atom   29 type  1   force =     0.01396226    0.00634221    0.00000000
     atom   30 type  1   force =    -0.00000773   -0.00000447    0.00000000
     atom   31 type  1   force =     0.00418083   -0.00227700    0.00000000

[...]
Al       4.735124511   4.298326210   0.000000000
Al       0.745461858   9.203825116   0.000000000
Al       1.479796921   6.601008213   0.000000000
Al      -2.913370579  12.884412243   0.000000000
Al      -1.141448119  11.141169252   0.000000000
Al       8.674689923   1.752803689   0.000000000
Al      10.964864695   0.389586220   0.000000000
Al       5.855290297   6.636178538   0.000000000
Al       7.347306024   4.241999563   0.000000000
Al       3.556335255   7.999192021   0.000000000
Al       5.819824775   9.301119668   0.000000000
Al       1.107655876  12.240460566   0.000000000
Al       3.119423665  10.574431453   0.000000000
Al      10.897732078   3.128802952   0.000000000
Al      13.281002762   1.856341197   0.000000000
Al       9.544892930   5.510809135   0.000000000
Al      12.124605167   5.446486582   0.000000000
Al       8.158461875   7.873421020   0.000000000
Al      10.779072135   7.777049607   0.000000000
Al       5.339943466  11.856481338   0.000000000
Al       8.248141062  10.573607718   0.000000000
End final coordinates



     Writing output data file 6al_planar_2x2_vcr.save/

     A final scf calculation at the relaxed structure.
     The G-vectors are recalculated for the final unit cell
     Results may differ from those at the preceding step.
 
     Parallelization info
     --------------------
     sticks:   dense  smooth     PW     G-vecs:    dense   smooth      PW
     Min        2304    2304    576               330598   330598   41308
     Max        2305    2305    577               330601   330601   41311
     Sum       18439   18439   4615              2644797  2644797  330477
 


     bravais-lattice index     =            4
     lattice parameter (alat)  =      33.6810  a.u.
     unit-cell volume          =   27360.0231 (a.u.)^3
     number of atoms/cell      =           31
     number of atomic types    =            1
     number of electrons       =        93.00
     number of Kohn-Sham states=           56
     kinetic-energy cutoff     =      80.0000  Ry
     charge density cutoff     =     320.0000  Ry
     convergence threshold     =      1.0E-08
     mixing beta               =       0.4000
     number of iterations used =            8  plain     mixing
     Exchange-correlation      = PBE ( 1  4  3  4 0 0)

     celldm(1)=  33.680967  celldm(2)=   0.000000  celldm(3)=   1.122133
     celldm(4)=   0.000000  celldm(5)=   0.000000  celldm(6)=   0.000000

     crystal axes: (cart. coord. in units of alat)
               a(1) = (   0.861347   0.005055   0.000000 )  
               a(2) = (  -0.426296   0.738366   0.000000 )  
               a(3) = (   0.000000   0.000000   1.122133 )  

     reciprocal axes: (cart. coord. in units 2 pi/alat)
               b(1) = (  1.157052  0.668025  0.000000 )  
               b(2) = ( -0.007921  1.349769  0.000000 )  
               b(3) = (  0.000000  0.000000  0.891160 )  


     PseudoPot. # 1 for Al read from file:
     ./Al.upf
     MD5 check sum: 4974d48a734c9d7d1eb6780a1419d19d
     Pseudo is Norm-conserving + core correction, Zval =  3.0
     Generated using ONCVPSP code by D. R. Hamann
     Using radial grid of 1876 points,  6 beta functions with: 
                l(1) =   0
                l(2) =   0
                l(3) =   1
                l(4) =   1
                l(5) =   2
                l(6) =   2

     atomic species   valence    mass     pseudopotential
        Al             3.00    29.98200     Al( 1.00)

      4 Sym. Ops. (no inversion) found ( 2 have fractional translation)



   Cartesian axes

     site n.     atom                  positions (alat units)
         1           Al  tau(   1) = (   0.0410849   0.1158890   0.0000000  )
         2           Al  tau(   2) = (  -0.0174845  -0.0100947   0.0000000  )
         3           Al  tau(   3) = (  -0.0563775   0.3803325   0.0000000  )
         4           Al  tau(   4) = (  -0.0440256   0.2354762   0.0000000  )
         5           Al  tau(   5) = (  -0.1251088   0.4993804   0.0000000  )
         6           Al  tau(   6) = (  -0.3053909   0.7160079   0.0000000  )
         7           Al  tau(   7) = (  -0.2443805   0.5825047   0.0000000  )
         8           Al  tau(   8) = (   0.1917731   0.1107220   0.0000000  )
         9           Al  tau(   9) = (   0.3416892   0.1094971   0.0000000  )
        10           Al  tau(  10) = (   0.1180204   0.2353603   0.0000000  )
        11           Al  tau(  11) = (   0.2656720   0.2411647   0.0000000  )
        12           Al  tau(  12) = (   0.0418254   0.5163958   0.0000000  )
        13           Al  tau(  13) = (   0.0830264   0.3703604   0.0000000  )
        14           Al  tau(  14) = (  -0.1634595   0.7229012   0.0000000  )
        15           Al  tau(  15) = (  -0.0640428   0.6250937   0.0000000  )
        16           Al  tau(  16) = (   0.4867078   0.0983439   0.0000000  )
        17           Al  tau(  17) = (   0.6152018   0.0218584   0.0000000  )
        18           Al  tau(  18) = (   0.3285207   0.3723337   0.0000000  )
        19           Al  tau(  19) = (   0.4122327   0.2380044   0.0000000  )
        20           Al  tau(  20) = (   0.1995340   0.4488078   0.0000000  )
        21           Al  tau(  21) = (   0.3265309   0.5218546   0.0000000  )
        22           Al  tau(  22) = (   0.0621469   0.6867712   0.0000000  )
        23           Al  tau(  23) = (   0.1750204   0.5932959   0.0000000  )
        24           Al  tau(  24) = (   0.6114352   0.1755466   0.0000000  )
        25           Al  tau(  25) = (   0.7451525   0.1041531   0.0000000  )
        26           Al  tau(  26) = (   0.5355319   0.3091930   0.0000000  )
        27           Al  tau(  27) = (   0.6802709   0.3055841   0.0000000  )
        28           Al  tau(  28) = (   0.4577439   0.4417513   0.0000000  )
        29           Al  tau(  29) = (   0.6047776   0.4363442   0.0000000  )
        30           Al  tau(  30) = (   0.2996063   0.6652274   0.0000000  )
        31           Al  tau(  31) = (   0.4627755   0.5932497   0.0000000  )

     number of k points=     1  Methfessel-Paxton smearing, width (Ry)=  0.0500
                       cart. coord. in units 2pi/alat
        k(    1) = (   0.0000000   0.0000000   0.0000000), wk =   2.0000000

     Dense  grid:  2644797 G-vectors     FFT dimensions: ( 180, 180, 216)

     Estimated max dynamical RAM per process >     888.75 MB

     Estimated total dynamical RAM >       6.94 GB

     Initial potential from superposition of free atoms

     starting charge   92.92414, renormalised to   93.00000

     negative rho (up, down):  7.322E-05 0.000E+00
     Starting wfcs are  124 randomized atomic wfcs

     total cpu time spent up to now is    61478.6 secs

     Self-consistent Calculation

     iteration #  1     ecut=    80.00 Ry     beta= 0.40
     Davidson diagonalization with overlap
     c_bands:  1 eigenvalues not converged
     ethr =  1.00E-06,  avg # of iterations = 20.0

     negative rho (up, down):  2.113E-05 0.000E+00

     total cpu time spent up to now is    61547.2 secs

     total energy              =    -141.89445175 Ry
     Harris-Foulkes estimate   =    -142.27102813 Ry
     estimated scf accuracy    <       1.00689165 Ry

     iteration #  2     ecut=    80.00 Ry     beta= 0.40
     Davidson diagonalization with overlap
     ethr =  1.08E-03,  avg # of iterations =  3.0

     negative rho (up, down):  2.252E-05 0.000E+00

     total cpu time spent up to now is    61566.9 secs

     total energy              =    -141.83253252 Ry
     Harris-Foulkes estimate   =    -142.06334438 Ry
     estimated scf accuracy    <       0.61458501 Ry

     iteration #  3     ecut=    80.00 Ry     beta= 0.40
     Davidson diagonalization with overlap
     ethr =  6.61E-04,  avg # of iterations =  5.0

     negative rho (up, down):  2.692E-05 0.000E+00

     total cpu time spent up to now is    61590.0 secs

     total energy              =    -141.88110961 Ry
     Harris-Foulkes estimate   =    -142.06943243 Ry
     estimated scf accuracy    <       0.88509865 Ry

     iteration #  4     ecut=    80.00 Ry     beta= 0.40
     Davidson diagonalization with overlap
     ethr =  6.61E-04,  avg # of iterations =  4.0

     negative rho (up, down):  2.839E-05 0.000E+00

     total cpu time spent up to now is    61612.2 secs

     total energy              =    -141.96601430 Ry
     Harris-Foulkes estimate   =    -141.97308191 Ry
     estimated scf accuracy    <       0.02353277 Ry

     iteration #  5     ecut=    80.00 Ry     beta= 0.40
     Davidson diagonalization with overlap
     ethr =  2.53E-05,  avg # of iterations = 12.0

     negative rho (up, down):  2.939E-05 0.000E+00

     total cpu time spent up to now is    61644.0 secs

     total energy              =    -141.97152810 Ry
     Harris-Foulkes estimate   =    -141.97524264 Ry
     estimated scf accuracy    <       0.01513635 Ry

     iteration #  6     ecut=    80.00 Ry     beta= 0.40
     Davidson diagonalization with overlap
     ethr =  1.63E-05,  avg # of iterations =  5.0

     negative rho (up, down):  3.029E-05 0.000E+00

     total cpu time spent up to now is    61666.2 secs

     total energy              =    -141.97230014 Ry
     Harris-Foulkes estimate   =    -141.97455692 Ry
     estimated scf accuracy    <       0.00998130 Ry

     iteration #  7     ecut=    80.00 Ry     beta= 0.40
     Davidson diagonalization with overlap
     ethr =  1.07E-05,  avg # of iterations =  4.0

     negative rho (up, down):  3.063E-05 0.000E+00

     total cpu time spent up to now is    61686.8 secs

     total energy              =    -141.97333722 Ry
     Harris-Foulkes estimate   =    -141.97355950 Ry
     estimated scf accuracy    <       0.00080965 Ry

     iteration #  8     ecut=    80.00 Ry     beta= 0.40
     Davidson diagonalization with overlap
     ethr =  8.71E-07,  avg # of iterations = 10.0

     negative rho (up, down):  3.073E-05 0.000E+00

     total cpu time spent up to now is    61716.0 secs

     total energy              =    -141.97336254 Ry
     Harris-Foulkes estimate   =    -141.97346897 Ry
     estimated scf accuracy    <       0.00059104 Ry

     iteration #  9     ecut=    80.00 Ry     beta= 0.40
     Davidson diagonalization with overlap
     ethr =  6.36E-07,  avg # of iterations =  3.0

     negative rho (up, down):  3.077E-05 0.000E+00

     total cpu time spent up to now is    61736.7 secs

     total energy              =    -141.97337681 Ry
     Harris-Foulkes estimate   =    -141.97341661 Ry
     estimated scf accuracy    <       0.00018122 Ry

     iteration # 10     ecut=    80.00 Ry     beta= 0.40
     Davidson diagonalization with overlap
     ethr =  1.95E-07,  avg # of iterations =  5.0

     negative rho (up, down):  3.081E-05 0.000E+00

     total cpu time spent up to now is    61757.9 secs

     total energy              =    -141.97339921 Ry
     Harris-Foulkes estimate   =    -141.97340109 Ry
     estimated scf accuracy    <       0.00000828 Ry

     iteration # 11     ecut=    80.00 Ry     beta= 0.40
     Davidson diagonalization with overlap
     ethr =  8.90E-09,  avg # of iterations =  7.0

     negative rho (up, down):  3.082E-05 0.000E+00

     total cpu time spent up to now is    61787.6 secs

     total energy              =    -141.97340210 Ry
     Harris-Foulkes estimate   =    -141.97340372 Ry
     estimated scf accuracy    <       0.00000824 Ry

     iteration # 12     ecut=    80.00 Ry     beta= 0.40
     Davidson diagonalization with overlap
     ethr =  8.86E-09,  avg # of iterations =  5.0

     negative rho (up, down):  3.084E-05 0.000E+00

     total cpu time spent up to now is    61809.2 secs

     total energy              =    -141.97340202 Ry
     Harris-Foulkes estimate   =    -141.97340310 Ry
     estimated scf accuracy    <       0.00000449 Ry

     iteration # 13     ecut=    80.00 Ry     beta= 0.40
     Davidson diagonalization with overlap
     ethr =  4.83E-09,  avg # of iterations =  4.0

     negative rho (up, down):  3.085E-05 0.000E+00

     total cpu time spent up to now is    61829.8 secs

     total energy              =    -141.97340252 Ry
     Harris-Foulkes estimate   =    -141.97340271 Ry
     estimated scf accuracy    <       0.00000123 Ry

     iteration # 14     ecut=    80.00 Ry     beta= 0.40
     Davidson diagonalization with overlap
     ethr =  1.32E-09,  avg # of iterations =  3.0

     negative rho (up, down):  3.085E-05 0.000E+00

     total cpu time spent up to now is    61847.8 secs

     total energy              =    -141.97340244 Ry
     Harris-Foulkes estimate   =    -141.97340257 Ry
     estimated scf accuracy    <       0.00000047 Ry

     iteration # 15     ecut=    80.00 Ry     beta= 0.40
     Davidson diagonalization with overlap
     ethr =  5.05E-10,  avg # of iterations =  5.0

     negative rho (up, down):  3.086E-05 0.000E+00

     total cpu time spent up to now is    61870.3 secs

     total energy              =    -141.97340249 Ry
     Harris-Foulkes estimate   =    -141.97340252 Ry
     estimated scf accuracy    <       0.00000010 Ry

     iteration # 16     ecut=    80.00 Ry     beta= 0.40
     Davidson diagonalization with overlap
     ethr =  1.12E-10,  avg # of iterations =  4.0

     negative rho (up, down):  3.086E-05 0.000E+00

     total cpu time spent up to now is    61890.8 secs

     End of self-consistent calculation

          k = 0.0000 0.0000 0.0000 (330477 PWs)   bands (ev):

   -11.4587 -10.8344 -10.6797 -10.5837 -10.5366 -10.4469 -10.3902  -9.1876
    -9.0475  -8.9940  -8.8826  -8.8725  -8.6676  -8.2540  -8.1419  -8.1406
    -8.1144  -7.9021  -7.6537  -6.0615  -6.0007  -5.9550  -5.9510  -5.9030
    -5.8268  -5.6763  -5.5429  -5.4644  -5.4249  -5.2846  -5.2167  -4.7784
    -4.4730  -4.3408  -4.1367  -4.1325  -4.0304  -3.9587  -3.9368  -3.8757
    -3.8235  -3.7909  -3.7409  -3.7335  -2.5375  -2.4429  -2.3973  -2.3462
    -2.2951  -2.1898  -2.1817  -2.0755  -1.9454  -1.7870  -1.7060  -1.6151

     the Fermi energy is    -2.4736 ev

!    total energy              =    -141.97340247 Ry
     Harris-Foulkes estimate   =    -141.97340248 Ry
     estimated scf accuracy    <          8.0E-09 Ry

     The total energy is the sum of the following terms:

     one-electron contribution =    -670.66621558 Ry
     hartree contribution      =     344.06067062 Ry
     xc contribution           =     -63.39920467 Ry
     ewald contribution        =     248.08108723 Ry
     smearing contrib. (-TS)   =      -0.04974008 Ry

     convergence has been achieved in  16 iterations

     negative rho (up, down):  3.086E-05 0.000E+00

     Forces acting on atoms (cartesian axes, Ry/au):

     atom    1 type  1   force =    -0.00000349   -0.00000122    0.00000000
     atom    2 type  1   force =     0.00000286    0.00000165    0.00000000
     atom    3 type  1   force =    -0.00000232    0.00000270    0.00000000
     atom    4 type  1   force =     0.00000067   -0.00000893    0.00000000
     atom    5 type  1   force =     0.00000118   -0.00000336    0.00000000
     atom    6 type  1   force =    -0.00000280   -0.00000242    0.00000000
     atom    7 type  1   force =    -0.00000740    0.00000505    0.00000000
     atom    8 type  1   force =    -0.00000048   -0.00000028    0.00000000
     atom    9 type  1   force =    -0.00001048   -0.00000467    0.00000000
     atom   10 type  1   force =    -0.00000219    0.00000443    0.00000000
     atom   11 type  1   force =    -0.00000929   -0.00000674    0.00000000
     atom   12 type  1   force =    -0.00000107   -0.00000062    0.00000000
     atom   13 type  1   force =     0.00000396   -0.00000119    0.00000000
     atom   14 type  1   force =     0.00000274   -0.00000411    0.00000000
     atom   15 type  1   force =     0.00000095    0.00000403    0.00000000
     atom   16 type  1   force =    -0.00000499   -0.00000683    0.00000000
     atom   17 type  1   force =    -0.00000097    0.00000829    0.00000000
     atom   18 type  1   force =    -0.00000841   -0.00000091    0.00000000
     atom   19 type  1   force =     0.00001191    0.00000687    0.00000000
     atom   20 type  1   force =    -0.00000636   -0.00000554    0.00000000
     atom   21 type  1   force =     0.00000670   -0.00000498    0.00000000
     atom   22 type  1   force =    -0.00000797   -0.00000274    0.00000000
     atom   23 type  1   force =    -0.00000184   -0.00000106    0.00000000
     atom   24 type  1   force =     0.00000502    0.00000459    0.00000000
     atom   25 type  1   force =     0.00000048   -0.00000537    0.00000000
     atom   26 type  1   force =     0.00000861    0.00000497    0.00000000
     atom   27 type  1   force =     0.00000510    0.00000646    0.00000000
     atom   28 type  1   force =     0.00000648    0.00000205    0.00000000
     atom   29 type  1   force =     0.00000814    0.00000118    0.00000000
     atom   30 type  1   force =     0.00000970    0.00000560    0.00000000
     atom   31 type  1   force =    -0.00000441    0.00000310    0.00000000

     Total force =     0.000041     Total SCF correction =     0.000088
     SCF correction compared to forces is large: reduce conv_thr to get better values


     Computing stress (Cartesian axis) and pressure


     negative rho (up, down):  3.086E-05 0.000E+00
          total   stress  (Ry/bohr**3)                   (kbar)     P=    0.00
   0.00000003   0.00000000   0.00000000          0.00      0.00      0.00
   0.00000000   0.00000003   0.00000000          0.00      0.00      0.00
  -0.00000000  -0.00000000  -0.00000001         -0.00     -0.00     -0.00


     Writing output data file 6al_planar_2x2_vcr.save/
 
     init_run     :     52.27s CPU     56.01s WALL (       2 calls)
     electrons    :  42850.41s CPU  46661.16s WALL (     160 calls)
     update_pot   :   4023.33s CPU   4053.44s WALL (     158 calls)
     forces       :   3231.98s CPU   3275.52s WALL (     160 calls)
     stress       :   7680.28s CPU   7780.60s WALL (     160 calls)

     Called by init_run:
     wfcinit      :     24.50s CPU     27.70s WALL (       2 calls)
     potinit      :     10.11s CPU     10.36s WALL (       2 calls)
     hinit0       :     14.34s CPU     14.51s WALL (       2 calls)

     Called by electrons:
     c_bands      :  36401.78s CPU  39445.26s WALL (    1467 calls)
     sum_band     :   4338.96s CPU   4861.01s WALL (    1467 calls)
     v_of_rho     :   1831.26s CPU   1979.96s WALL (    1572 calls)
     mix_rho      :    349.82s CPU    424.50s WALL (    1467 calls)

     Called by c_bands:
     init_us_2    :    452.38s CPU    455.66s WALL (    2936 calls)
     cegterg      :  31853.51s CPU  34881.40s WALL (    1468 calls)

     Called by sum_band:

     Called by *egterg:
     h_psi        :  27669.44s CPU  30632.63s WALL (    9863 calls)
     g_psi        :    111.53s CPU    112.17s WALL (    8393 calls)
     cdiaghg      :     94.36s CPU     95.59s WALL (    9647 calls)

     Called by h_psi:
     h_psi:pot    :  27621.05s CPU  30538.68s WALL (    9863 calls)
     h_psi:calbec :   4344.78s CPU   4361.43s WALL (    9863 calls)
     vloc_psi     :  18725.07s CPU  21613.21s WALL (    9863 calls)
     add_vuspsi   :   4550.98s CPU   4563.93s WALL (    9863 calls)

     General routines
     calbec       :   5048.46s CPU   5066.81s WALL (   10663 calls)
     fft          :   2012.61s CPU   2143.77s WALL (   19933 calls)
     ffts         :    115.47s CPU    125.19s WALL (    1467 calls)
     fftw         :  20074.05s CPU  23427.45s WALL (  577556 calls)
 
     Parallel routines
     fft_scatt_xy :   2983.49s CPU   3635.07s WALL (  598956 calls)
     fft_scatt_yz :  10086.23s CPU  10879.68s WALL (  598956 calls)
 
     PWSCF        :    16h 4m CPU        4h17m WALL

      12h
 
   This run was terminated on:  13:28:11  26Nov2020            

=------------------------------------------------------------------------------=
   JOB DONE.
=------------------------------------------------------------------------------=
