
     Program PWSCF v.6.3MaX starts on 26Nov2020 at  9: 7:14 

     This program is part of the open-source Quantum ESPRESSO suite
     for quantum simulation of materials; please cite
         "P. Giannozzi et al., J. Phys.:Condens. Matter 21 395502 (2009);
         "P. Giannozzi et al., J. Phys.:Condens. Matter 29 465901 (2017);
          URL http://www.quantum-espresso.org", 
     in publications or presentations arising from this work. More details at
     http://www.quantum-espresso.org/quote

     Parallel version (MPI), running on     8 processors

     MPI processes distributed on     2 nodes
     R & G space division:  proc/nbgrp/npool/nimage =       8
     Waiting for input...
     Reading input from standard input

     Current dimensions of program PWSCF are:
     Max number of different atomic species (ntypx) = 10
     Max number of k-points (npk) =  40000
     Max angular momentum in pseudopotentials (lmaxx) =  3

     Subspace diagonalization in iterative solution of the eigenvalue problem:
     a serial algorithm will be used

     Message from routine find_sym:
     Not a group! Trying with lower acceptance parameter...
     Message from routine find_sym:
     Symmetry operations form a group
 
     Parallelization info
     --------------------
     sticks:   dense  smooth     PW     G-vecs:    dense   smooth      PW
     Min        3123    3123    778               448599   448599   56048
     Max        3124    3124    779               448604   448604   56052
     Sum       24985   24985   6229              3588803  3588803  448403
 


     bravais-lattice index     =            4
     lattice parameter (alat)  =      33.6810  a.u.
     unit-cell volume          =   37130.3117 (a.u.)^3
     number of atoms/cell      =           31
     number of atomic types    =            1
     number of electrons       =        93.00
     number of Kohn-Sham states=           56
     kinetic-energy cutoff     =      80.0000  Ry
     charge density cutoff     =     320.0000  Ry
     convergence threshold     =      1.0E-06
     mixing beta               =       0.4000
     number of iterations used =            8  plain     mixing
     Exchange-correlation      = PBE ( 1  4  3  4 0 0)
     nstep                     =          300


     celldm(1)=  33.680967  celldm(2)=   0.000000  celldm(3)=   1.122133
     celldm(4)=   0.000000  celldm(5)=   0.000000  celldm(6)=   0.000000

     crystal axes: (cart. coord. in units of alat)
               a(1) = (   1.000000   0.000000   0.000000 )  
               a(2) = (  -0.500000   0.866025   0.000000 )  
               a(3) = (   0.000000   0.000000   1.122133 )  

     reciprocal axes: (cart. coord. in units 2 pi/alat)
               b(1) = (  1.000000  0.577350  0.000000 )  
               b(2) = (  0.000000  1.154701  0.000000 )  
               b(3) = (  0.000000  0.000000  0.891160 )  


     PseudoPot. # 1 for Al read from file:
     ./Al.upf
     MD5 check sum: 4974d48a734c9d7d1eb6780a1419d19d
     Pseudo is Norm-conserving + core correction, Zval =  3.0
     Generated using ONCVPSP code by D. R. Hamann
     Using radial grid of 1876 points,  6 beta functions with: 
                l(1) =   0
                l(2) =   0
                l(3) =   1
                l(4) =   1
                l(5) =   2
                l(6) =   2

     atomic species   valence    mass     pseudopotential
        Al             3.00    29.98200     Al( 1.00)

      2 Sym. Ops. (no inversion) found



   Cartesian axes

     site n.     atom                  positions (alat units)
         1           Al  tau(   1) = (  -0.0000000   0.1443393   0.0000000  )
         2           Al  tau(   2) = (   0.1250015   0.0721696   0.0000000  )
         3           Al  tau(   3) = (  -0.1249997   0.3608472   0.0000000  )
         4           Al  tau(   4) = (   0.0000018   0.2886775   0.0000000  )
         5           Al  tau(   5) = (  -0.2499994   0.5773550   0.0000000  )
         6           Al  tau(   6) = (  -0.1249979   0.5051854   0.0000000  )
         7           Al  tau(   7) = (  -0.3749991   0.7938629   0.0000000  )
         8           Al  tau(   8) = (  -0.2499976   0.7216932   0.0000000  )
         9           Al  tau(   9) = (   0.2500011   0.1443403   0.0000000  )
        10           Al  tau(  10) = (   0.3750027   0.0721706   0.0000000  )
        11           Al  tau(  11) = (   0.1250014   0.3608482   0.0000000  )
        12           Al  tau(  12) = (   0.2500030   0.2886785   0.0000000  )
        13           Al  tau(  13) = (   0.0000017   0.5773560   0.0000000  )
        14           Al  tau(  14) = (   0.1250033   0.5051864   0.0000000  )
        15           Al  tau(  15) = (  -0.1249980   0.7938639   0.0000000  )
        16           Al  tau(  16) = (   0.0000036   0.7216942   0.0000000  )
        17           Al  tau(  17) = (   0.5000023   0.1443413   0.0000000  )
        18           Al  tau(  18) = (   0.6250038   0.0721717   0.0000000  )
        19           Al  tau(  19) = (   0.3750026   0.3608492   0.0000000  )
        20           Al  tau(  20) = (   0.5000041   0.2886795   0.0000000  )
        21           Al  tau(  21) = (   0.2500029   0.5773571   0.0000000  )
        22           Al  tau(  22) = (   0.3750044   0.5051874   0.0000000  )
        23           Al  tau(  23) = (   0.1250032   0.7938649   0.0000000  )
        24           Al  tau(  24) = (   0.7500035   0.1443423   0.0000000  )
        25           Al  tau(  25) = (   0.8750050   0.0721727   0.0000000  )
        26           Al  tau(  26) = (   0.6250038   0.3608502   0.0000000  )
        27           Al  tau(  27) = (   0.7500053   0.2886805   0.0000000  )
        28           Al  tau(  28) = (   0.5000041   0.5773581   0.0000000  )
        29           Al  tau(  29) = (   0.6250056   0.5051884   0.0000000  )
        30           Al  tau(  30) = (   0.3750044   0.7938660   0.0000000  )
        31           Al  tau(  31) = (   0.5000059   0.7216963   0.0000000  )

     number of k points=     1  Methfessel-Paxton smearing, width (Ry)=  0.0500
                       cart. coord. in units 2pi/alat
        k(    1) = (   0.0000000   0.0000000   0.0000000), wk =   2.0000000

     Dense  grid:  3588803 G-vectors     FFT dimensions: ( 192, 192, 216)

     Estimated max dynamical RAM per process >       1.15 GB

     Estimated total dynamical RAM >       9.23 GB

     Initial potential from superposition of free atoms

     starting charge   92.92414, renormalised to   93.00000

     negative rho (up, down):  9.278E-05 0.000E+00
     Starting wfcs are  124 randomized atomic wfcs

     total cpu time spent up to now is       35.3 secs

     Self-consistent Calculation

     iteration #  1     ecut=    80.00 Ry     beta= 0.40
     Davidson diagonalization with overlap
     ethr =  1.00E-02,  avg # of iterations =  2.0

     total cpu time spent up to now is       74.7 secs

     total energy              =    -140.64329071 Ry
     Harris-Foulkes estimate   =    -141.23603837 Ry
     estimated scf accuracy    <       1.54681465 Ry

     iteration #  2     ecut=    80.00 Ry     beta= 0.40
     Davidson diagonalization with overlap
     ethr =  1.66E-03,  avg # of iterations =  5.0

     total cpu time spent up to now is      111.4 secs

     total energy              =    -140.22261398 Ry
     Harris-Foulkes estimate   =    -141.45478307 Ry
     estimated scf accuracy    <       6.69218827 Ry

     iteration #  3     ecut=    80.00 Ry     beta= 0.40
     Davidson diagonalization with overlap
     ethr =  1.66E-03,  avg # of iterations =  5.0

     total cpu time spent up to now is      146.6 secs

     total energy              =    -140.82715450 Ry
     Harris-Foulkes estimate   =    -141.02378092 Ry
     estimated scf accuracy    <       1.18020327 Ry

     iteration #  4     ecut=    80.00 Ry     beta= 0.40
     Davidson diagonalization with overlap
     ethr =  1.27E-03,  avg # of iterations =  3.0

     total cpu time spent up to now is      173.2 secs

     total energy              =    -140.90015239 Ry
     Harris-Foulkes estimate   =    -140.94864438 Ry
     estimated scf accuracy    <       0.17019310 Ry

     iteration #  5     ecut=    80.00 Ry     beta= 0.40
     Davidson diagonalization with overlap
     ethr =  1.83E-04,  avg # of iterations =  5.0

     total cpu time spent up to now is      202.4 secs

     total energy              =    -140.91387629 Ry
     Harris-Foulkes estimate   =    -140.95473292 Ry
     estimated scf accuracy    <       0.28443447 Ry

     iteration #  6     ecut=    80.00 Ry     beta= 0.40
     Davidson diagonalization with overlap
     ethr =  1.83E-04,  avg # of iterations =  3.0

     total cpu time spent up to now is      227.9 secs

     total energy              =    -140.93084686 Ry
     Harris-Foulkes estimate   =    -140.93331056 Ry
     estimated scf accuracy    <       0.01061733 Ry

     iteration #  7     ecut=    80.00 Ry     beta= 0.40
     Davidson diagonalization with overlap
     ethr =  1.14E-05,  avg # of iterations =  8.0

     total cpu time spent up to now is      269.4 secs

     total energy              =    -140.93565991 Ry
     Harris-Foulkes estimate   =    -140.93819590 Ry
     estimated scf accuracy    <       0.02032823 Ry

     iteration #  8     ecut=    80.00 Ry     beta= 0.40
     Davidson diagonalization with overlap
     ethr =  1.14E-05,  avg # of iterations =  3.0

     total cpu time spent up to now is      297.1 secs

     total energy              =    -140.93541584 Ry
     Harris-Foulkes estimate   =    -140.93721371 Ry
     estimated scf accuracy    <       0.01254103 Ry

     iteration #  9     ecut=    80.00 Ry     beta= 0.40
     Davidson diagonalization with overlap
     ethr =  1.14E-05,  avg # of iterations =  1.0

     total cpu time spent up to now is      324.4 secs

     total energy              =    -140.93563390 Ry
     Harris-Foulkes estimate   =    -140.93640402 Ry
     estimated scf accuracy    <       0.00504555 Ry

     iteration # 10     ecut=    80.00 Ry     beta= 0.40
     Davidson diagonalization with overlap
     ethr =  5.43E-06,  avg # of iterations =  1.0

     total cpu time spent up to now is      351.0 secs

     total energy              =    -140.93573569 Ry
     Harris-Foulkes estimate   =    -140.93596469 Ry
     estimated scf accuracy    <       0.00100433 Ry

     iteration # 11     ecut=    80.00 Ry     beta= 0.40
     Davidson diagonalization with overlap
     ethr =  1.08E-06,  avg # of iterations =  7.0

     total cpu time spent up to now is      389.4 secs

     total energy              =    -140.93602631 Ry
     Harris-Foulkes estimate   =    -140.93621675 Ry
     estimated scf accuracy    <       0.00139395 Ry

     iteration # 12     ecut=    80.00 Ry     beta= 0.40
     Davidson diagonalization with overlap
     ethr =  1.08E-06,  avg # of iterations =  3.0

     total cpu time spent up to now is      415.7 secs

     total energy              =    -140.93607968 Ry
     Harris-Foulkes estimate   =    -140.93612571 Ry
     estimated scf accuracy    <       0.00021422 Ry

     iteration # 13     ecut=    80.00 Ry     beta= 0.40
     Davidson diagonalization with overlap
     ethr =  2.30E-07,  avg # of iterations =  3.0

     total cpu time spent up to now is      443.2 secs

     total energy              =    -140.93609972 Ry
     Harris-Foulkes estimate   =    -140.93610448 Ry
     estimated scf accuracy    <       0.00002812 Ry

     iteration # 14     ecut=    80.00 Ry     beta= 0.40
     Davidson diagonalization with overlap
     ethr =  3.02E-08,  avg # of iterations =  5.0

     total cpu time spent up to now is      479.7 secs

     total energy              =    -140.93610340 Ry
     Harris-Foulkes estimate   =    -140.93611075 Ry
     estimated scf accuracy    <       0.00005423 Ry

     iteration # 15     ecut=    80.00 Ry     beta= 0.40
     Davidson diagonalization with overlap
     ethr =  3.02E-08,  avg # of iterations =  3.0

     total cpu time spent up to now is      507.5 secs

     total energy              =    -140.93610607 Ry
     Harris-Foulkes estimate   =    -140.93610762 Ry
     estimated scf accuracy    <       0.00000687 Ry

     iteration # 16     ecut=    80.00 Ry     beta= 0.40
     Davidson diagonalization with overlap
     ethr =  7.39E-09,  avg # of iterations =  4.0

     total cpu time spent up to now is      535.9 secs

     total energy              =    -140.93610629 Ry
     Harris-Foulkes estimate   =    -140.93610717 Ry
     estimated scf accuracy    <       0.00000364 Ry

     iteration # 17     ecut=    80.00 Ry     beta= 0.40
     Davidson diagonalization with overlap
     ethr =  3.91E-09,  avg # of iterations =  4.0

     total cpu time spent up to now is      564.8 secs

     total energy              =    -140.93610635 Ry
     Harris-Foulkes estimate   =    -140.93610723 Ry
     estimated scf accuracy    <       0.00000561 Ry

     iteration # 18     ecut=    80.00 Ry     beta= 0.40
     Davidson diagonalization with overlap
     ethr =  3.91E-09,  avg # of iterations =  3.0

     total cpu time spent up to now is      591.0 secs

     End of self-consistent calculation

          k = 0.0000 0.0000 0.0000 (448403 PWs)   bands (ev):

    -9.9529  -9.4481  -9.4332  -9.4329  -9.4259  -9.4259  -9.1460  -8.4049
    -8.4049  -8.3882  -8.3880  -8.3797  -8.3035  -8.2570  -8.2568  -7.5868
    -6.9325  -6.9323  -6.8233  -6.4866  -6.4773  -6.4772  -6.3702  -6.3701
    -5.4641  -4.8435  -4.8433  -4.8369  -4.7357  -4.7357  -4.4781  -4.4680
    -4.4428  -4.4428  -4.1227  -4.1226  -3.9778  -3.4709  -3.4689  -3.4687
    -3.4577  -3.4576  -3.4016  -3.2745  -3.2744  -3.2225  -3.2078  -2.9744
    -2.9654  -2.9652  -2.9389  -2.5198  -2.5196  -2.4504  -2.4495  -2.4315

     the Fermi energy is    -3.0911 ev

!    total energy              =    -140.93610602 Ry
     Harris-Foulkes estimate   =    -140.93610678 Ry
     estimated scf accuracy    <       0.00000085 Ry

     The total energy is the sum of the following terms:

     one-electron contribution =    -502.03503442 Ry
     hartree contribution      =     259.76201348 Ry
     xc contribution           =     -61.33561768 Ry
     ewald contribution        =     162.75357038 Ry
     smearing contrib. (-TS)   =      -0.08103778 Ry

     convergence has been achieved in  18 iterations

     Forces acting on atoms (cartesian axes, Ry/au):

     atom    1 type  1   force =    -0.00523047   -0.00126790    0.00000000
     atom    2 type  1   force =     0.00185252    0.00109972    0.00000000
     atom    3 type  1   force =     0.00044646   -0.00027287    0.00000000
     atom    4 type  1   force =     0.00200060   -0.00114263    0.00000000
     atom    5 type  1   force =     0.00002128    0.00050940    0.00000000
     atom    6 type  1   force =    -0.00118768   -0.00066068    0.00000000
     atom    7 type  1   force =    -0.00369084   -0.00393949    0.00000000
     atom    8 type  1   force =    -0.00004153    0.00229817    0.00000000
     atom    9 type  1   force =    -0.00000755    0.00000004    0.00000000
     atom   10 type  1   force =    -0.00186893    0.00108618    0.00000000
     atom   11 type  1   force =    -0.00152061    0.00516419    0.00000000
     atom   12 type  1   force =    -0.00002019   -0.00213338    0.00000000
     atom   13 type  1   force =     0.00115980    0.00069150    0.00000000
     atom   14 type  1   force =    -0.00315915   -0.00110172    0.00000000
     atom   15 type  1   force =     0.00377576   -0.00394246    0.00000000
     atom   16 type  1   force =    -0.00255267   -0.00218568    0.00000000
     atom   17 type  1   force =     0.00529499   -0.00128568    0.00000000
     atom   18 type  1   force =     0.00062576    0.00330970    0.00000000
     atom   19 type  1   force =     0.00155397    0.00515624    0.00000000
     atom   20 type  1   force =    -0.00202200   -0.00112354    0.00000000
     atom   21 type  1   force =    -0.00001187    0.01517583    0.00000000
     atom   22 type  1   force =     0.00319096   -0.00108236    0.00000000
     atom   23 type  1   force =     0.01313521   -0.00758110    0.00000000
     atom   24 type  1   force =    -0.00003232   -0.00134707    0.00000000
     atom   25 type  1   force =    -0.00063393    0.00328163    0.00000000
     atom   26 type  1   force =    -0.00040909   -0.00027659    0.00000000
     atom   27 type  1   force =    -0.00003649    0.00136856    0.00000000
     atom   28 type  1   force =    -0.00115876    0.00065528    0.00000000
     atom   29 type  1   force =     0.00114521   -0.00066236    0.00000000
     atom   30 type  1   force =    -0.01314715   -0.00758338    0.00000000
     atom   31 type  1   force =     0.00252868   -0.00220757    0.00000000

     Total force =     0.031230     Total SCF correction =     0.000758


     Computing stress (Cartesian axis) and pressure

          total   stress  (Ry/bohr**3)                   (kbar)     P=   -0.57
  -0.00000581   0.00000003   0.00000000         -0.85      0.00      0.00
   0.00000003  -0.00000576   0.00000000          0.00     -0.85      0.00
   0.00000000   0.00000000  -0.00000000          0.00      0.00     -0.00


     BFGS Geometry Optimization

     number of scf cycles    =   1
     number of bfgs steps    =   0

     enthalpy new            =    -140.9361060234 Ry

     new trust radius        =       0.0151774597 bohr
     new conv_thr            =       0.0000010000 Ry

     new unit-cell volume =  37119.56992 a.u.^3 (  5500.55269 Ang^3 )
     density =      0.28059 g/cm^3

CELL_PARAMETERS (alat= 33.68096681)
   0.999854769   0.000000665   0.000000000
  -0.499926809   0.865900286   0.000000000
   0.000000000   0.000000000   1.122132950

ATOMIC_POSITIONS (angstrom)
Al      -0.002766320   2.571546340   0.000000000
Al       2.228584202   1.286691433   0.000000000
Al      -2.227331169   6.430378415   0.000000000
Al       0.001094034   5.143810601   0.000000000
Al      -4.455124650  10.289097914   0.000000000
Al      -2.228161405   9.002371204   0.000000000
Al      -6.684657249  14.145049601   0.000000000
Al      -4.455123490  12.862242333   0.000000000
Al       4.455170804   2.572238367   0.000000000
Al       6.681788855   1.286705421   0.000000000
Al       2.226801725   6.433276320   0.000000000
Al       4.455198506   5.143307553   0.000000000
Al       0.000651412  10.289215419   0.000000000
Al       2.225969164   9.002159004   0.000000000
Al      -2.225533000  14.145069187   0.000000000
Al      -0.001278463  12.859891079   0.000000000
Al       8.913150049   2.571579248   0.000000000
Al      11.138282467   1.287903045   0.000000000
Al       6.683602160   6.433293270   0.000000000
Al       8.909313020   5.143863012   0.000000000
Al       4.455205161  10.296900244   0.000000000
Al       6.684502682   9.002190402   0.000000000
Al       2.234592762  14.143165140   0.000000000
Al      13.365505039   2.571567920   0.000000000
Al      15.592789640   1.287909347   0.000000000
Al      11.137737176   6.430439912   0.000000000
Al      13.365537226   5.145202744   0.000000000
Al       8.909772008  10.289238567   0.000000000
Al      11.138593946   9.002433783   0.000000000
Al       6.675860425  14.143185079   0.000000000
Al       8.911757421  12.859921809   0.000000000



     Writing output data file 24al_planar_2x2_vcr.save/
     NEW-OLD atomic charge density approx. for the potential

     negative rho (up, down):  2.997E-07 0.000E+00
     extrapolated charge   92.97311, renormalised to   93.00000

     total cpu time spent up to now is      667.0 secs

     Self-consistent Calculation

     iteration #  1     ecut=    80.00 Ry     beta= 0.40
     Davidson diagonalization with overlap
     ethr =  1.00E-06,  avg # of iterations =  4.0

     negative rho (up, down):  1.479E-07 0.000E+00

     total cpu time spent up to now is      703.8 secs

     total energy              =    -140.93702863 Ry
     Harris-Foulkes estimate   =    -141.07019166 Ry
     estimated scf accuracy    <       0.00014190 Ry

     iteration #  2     ecut=    80.00 Ry     beta= 0.40
     Davidson diagonalization with overlap
     ethr =  1.53E-07,  avg # of iterations =  5.0

     negative rho (up, down):  1.337E-07 0.000E+00

     total cpu time spent up to now is      740.9 secs

     total energy              =    -140.93694405 Ry
     Harris-Foulkes estimate   =    -140.93729185 Ry
     estimated scf accuracy    <       0.00279120 Ry

     iteration #  3     ecut=    80.00 Ry     beta= 0.40
     Davidson diagonalization with overlap
     ethr =  1.53E-07,  avg # of iterations =  5.0

     negative rho (up, down):  9.121E-08 0.000E+00

     total cpu time spent up to now is      776.7 secs

     total energy              =    -140.93710855 Ry
     Harris-Foulkes estimate   =    -140.93711321 Ry
     estimated scf accuracy    <       0.00001741 Ry

     iteration #  4     ecut=    80.00 Ry     beta= 0.40
     Davidson diagonalization with overlap
     ethr =  1.87E-08,  avg # of iterations =  4.0

     negative rho (up, down):  6.638E-08 0.000E+00

     total cpu time spent up to now is      806.7 secs

     total energy              =    -140.93710877 Ry
     Harris-Foulkes estimate   =    -140.93711232 Ry
     estimated scf accuracy    <       0.00001605 Ry

     iteration #  5     ecut=    80.00 Ry     beta= 0.40
     Davidson diagonalization with overlap
     ethr =  1.73E-08,  avg # of iterations =  4.0

     negative rho (up, down):  3.276E-08 0.000E+00

     total cpu time spent up to now is      833.3 secs

     total energy              =    -140.93710974 Ry
     Harris-Foulkes estimate   =    -140.93711202 Ry
     estimated scf accuracy    <       0.00001458 Ry

     iteration #  6     ecut=    80.00 Ry     beta= 0.40
     Davidson diagonalization with overlap
     ethr =  1.57E-08,  avg # of iterations =  3.0

     total cpu time spent up to now is      858.2 secs

     End of self-consistent calculation

          k = 0.0000 0.0000 0.0000 (448403 PWs)   bands (ev):

    -9.9530  -9.4482  -9.4332  -9.4330  -9.4252  -9.4250  -9.1436  -8.4037
    -8.4037  -8.3843  -8.3841  -8.3824  -8.3048  -8.2541  -8.2540  -7.5850
    -6.9319  -6.9319  -6.8227  -6.4819  -6.4773  -6.4772  -6.3719  -6.3718
    -5.4691  -4.8393  -4.8392  -4.8347  -4.7361  -4.7361  -4.4763  -4.4669
    -4.4428  -4.4427  -4.1249  -4.1248  -3.9777  -3.4708  -3.4674  -3.4674
    -3.4581  -3.4580  -3.3995  -3.2728  -3.2728  -3.2209  -3.2173  -2.9700
    -2.9632  -2.9631  -2.9409  -2.5167  -2.5166  -2.4466  -2.4458  -2.4334

     the Fermi energy is    -3.0905 ev

!    total energy              =    -140.93711070 Ry
     Harris-Foulkes estimate   =    -140.93711106 Ry
     estimated scf accuracy    <       0.00000092 Ry

     The total energy is the sum of the following terms:

     one-electron contribution =    -502.12280785 Ry
     hartree contribution      =     259.80475181 Ry
     xc contribution           =     -61.33344381 Ry
     ewald contribution        =     162.79507376 Ry
     smearing contrib. (-TS)   =      -0.08068461 Ry

     convergence has been achieved in   6 iterations

     Forces acting on atoms (cartesian axes, Ry/au):

     atom    1 type  1   force =    -0.00442254   -0.00121601    0.00000000
     atom    2 type  1   force =     0.00135614    0.00080138    0.00000000
     atom    3 type  1   force =     0.00065934   -0.00038814    0.00000000
     atom    4 type  1   force =     0.00195524   -0.00112246    0.00000000
     atom    5 type  1   force =     0.00001719    0.00072567    0.00000000
     atom    6 type  1   force =    -0.00094480   -0.00053010    0.00000000
     atom    7 type  1   force =    -0.00326201   -0.00322407    0.00000000
     atom    8 type  1   force =    -0.00002928    0.00225729    0.00000000
     atom    9 type  1   force =     0.00000114    0.00001468    0.00000000
     atom   10 type  1   force =    -0.00137115    0.00080599    0.00000000
     atom   11 type  1   force =    -0.00113925    0.00442307    0.00000000
     atom   12 type  1   force =    -0.00001405   -0.00155229    0.00000000
     atom   13 type  1   force =     0.00083990    0.00049412    0.00000000
     atom   14 type  1   force =    -0.00209682   -0.00040662    0.00000000
     atom   15 type  1   force =     0.00332239   -0.00323261    0.00000000
     atom   16 type  1   force =    -0.00140036   -0.00161291    0.00000000
     atom   17 type  1   force =     0.00446743   -0.00123902    0.00000000
     atom   18 type  1   force =     0.00071416    0.00202327    0.00000000
     atom   19 type  1   force =     0.00116070    0.00442739    0.00000000
     atom   20 type  1   force =    -0.00196235   -0.00110154    0.00000000
     atom   21 type  1   force =    -0.00000482    0.01501096    0.00000000
     atom   22 type  1   force =     0.00211939   -0.00039649    0.00000000
     atom   23 type  1   force =     0.01299093   -0.00747896    0.00000000
     atom   24 type  1   force =    -0.00002100   -0.00098563    0.00000000
     atom   25 type  1   force =    -0.00072509    0.00201449    0.00000000
     atom   26 type  1   force =    -0.00063079   -0.00039654    0.00000000
     atom   27 type  1   force =    -0.00002655    0.00108112    0.00000000
     atom   28 type  1   force =    -0.00083898    0.00046319    0.00000000
     atom   29 type  1   force =     0.00090653   -0.00053657    0.00000000
     atom   30 type  1   force =    -0.01300538   -0.00748895    0.00000000
     atom   31 type  1   force =     0.00138471   -0.00163369    0.00000000

     Total force =     0.029331     Total SCF correction =     0.000599


     Computing stress (Cartesian axis) and pressure

          total   stress  (Ry/bohr**3)                   (kbar)     P=   -0.58
  -0.00000594   0.00000002   0.00000000         -0.87      0.00      0.00
   0.00000002  -0.00000590   0.00000000          0.00     -0.87      0.00
   0.00000000   0.00000000  -0.00000005          0.00      0.00     -0.01


     number of scf cycles    =   2
     number of bfgs steps    =   1

     enthalpy old            =    -140.9361060234 Ry
     enthalpy new            =    -140.9371107025 Ry

     CASE: enthalpy_new < enthalpy_old


     WARNING: bfgs curvature condition failed, Theta= 0.853
     new trust radius        =       0.0227629028 bohr
     new conv_thr            =       0.0000010000 Ry

     new unit-cell volume =  37103.12299 a.u.^3 (  5498.11550 Ang^3 )
     density =      0.28071 g/cm^3

CELL_PARAMETERS (alat= 33.68096681)
   0.999632354   0.000001590   0.000000000
  -0.499814800   0.865708735   0.000000000
   0.000000000   0.000000000   1.122132950

ATOMIC_POSITIONS (angstrom)
Al      -0.006549281   2.569991189   0.000000000
Al       2.229328474   1.287143174   0.000000000
Al      -2.226369734   6.428683336   0.000000000
Al       0.002674671   5.141772476   0.000000000
Al      -4.454109080  10.287335115   0.000000000
Al      -2.228488245   8.999918110   0.000000000
Al      -6.685897309  14.139122240   0.000000000
Al      -4.454147776  12.861215754   0.000000000
Al       4.454180338   2.571681986   0.000000000
Al       6.679052453   1.287159273   0.000000000
Al       2.225282812   6.435624138   0.000000000
Al       4.454199075   5.140754590   0.000000000
Al       0.001431941  10.287401328   0.000000000
Al       2.223474552   8.999631883   0.000000000
Al      -2.222228794  14.139140881   0.000000000
Al      -0.002745889  12.855585257   0.000000000
Al       8.914997692   2.570015617   0.000000000
Al      11.136348791   1.289648377   0.000000000
Al       6.683171775   6.435644819   0.000000000
Al       8.905749656   5.141849255   0.000000000
Al       4.454217611  10.306674977   0.000000000
Al       6.685052778   8.999678392   0.000000000
Al       2.244531558  14.134039623   0.000000000
Al      13.362513980   2.570112217   0.000000000
Al      15.588771599   1.289645740   0.000000000
Al      11.134831127   6.428751946   0.000000000
Al      13.362544545   5.145033345   0.000000000
Al       8.907029204  10.287406350   0.000000000
Al      11.136923467   8.999989387   0.000000000
Al       6.663954935  14.134058064   0.000000000
Al       8.911251431  12.855607286   0.000000000



     Writing output data file 24al_planar_2x2_vcr.save/
     NEW-OLD atomic charge density approx. for the potential

     negative rho (up, down):  4.819E-07 0.000E+00
     extrapolated charge   92.95881, renormalised to   93.00000

     total cpu time spent up to now is      934.7 secs

     Self-consistent Calculation

     iteration #  1     ecut=    80.00 Ry     beta= 0.40
     Davidson diagonalization with overlap
     ethr =  1.00E-06,  avg # of iterations =  4.0

     negative rho (up, down):  2.415E-07 0.000E+00

     total cpu time spent up to now is      974.9 secs

     total energy              =    -140.93841491 Ry
     Harris-Foulkes estimate   =    -141.14238160 Ry
     estimated scf accuracy    <       0.00012057 Ry

     iteration #  2     ecut=    80.00 Ry     beta= 0.40
     Davidson diagonalization with overlap
     ethr =  1.30E-07,  avg # of iterations =  6.0

     negative rho (up, down):  2.162E-07 0.000E+00

     total cpu time spent up to now is     1014.0 secs

     total energy              =    -140.93838635 Ry
     Harris-Foulkes estimate   =    -140.93856912 Ry
     estimated scf accuracy    <       0.00132288 Ry

     iteration #  3     ecut=    80.00 Ry     beta= 0.40
     Davidson diagonalization with overlap
     ethr =  1.30E-07,  avg # of iterations =  5.0

     negative rho (up, down):  1.431E-07 0.000E+00

     total cpu time spent up to now is     1046.8 secs

     total energy              =    -140.93847522 Ry
     Harris-Foulkes estimate   =    -140.93848549 Ry
     estimated scf accuracy    <       0.00005149 Ry

     iteration #  4     ecut=    80.00 Ry     beta= 0.40
     Davidson diagonalization with overlap
     ethr =  5.54E-08,  avg # of iterations =  3.0

     negative rho (up, down):  1.051E-07 0.000E+00

     total cpu time spent up to now is     1072.6 secs

     total energy              =    -140.93847682 Ry
     Harris-Foulkes estimate   =    -140.93848202 Ry
     estimated scf accuracy    <       0.00002126 Ry

     iteration #  5     ecut=    80.00 Ry     beta= 0.40
     Davidson diagonalization with overlap
     ethr =  2.29E-08,  avg # of iterations =  4.0

     negative rho (up, down):  5.440E-08 0.000E+00

     total cpu time spent up to now is     1100.4 secs

     total energy              =    -140.93847856 Ry
     Harris-Foulkes estimate   =    -140.93848201 Ry
     estimated scf accuracy    <       0.00002017 Ry

     iteration #  6     ecut=    80.00 Ry     beta= 0.40
     Davidson diagonalization with overlap
     ethr =  2.17E-08,  avg # of iterations =  3.0

     negative rho (up, down):  2.006E-08 0.000E+00

     total cpu time spent up to now is     1127.2 secs

     total energy              =    -140.93848046 Ry
     Harris-Foulkes estimate   =    -140.93848083 Ry
     estimated scf accuracy    <       0.00000240 Ry

     iteration #  7     ecut=    80.00 Ry     beta= 0.40
     Davidson diagonalization with overlap
     ethr =  2.59E-09,  avg # of iterations =  5.0

     negative rho (up, down):  1.214E-08 0.000E+00

     total cpu time spent up to now is     1160.2 secs

     total energy              =    -140.93848016 Ry
     Harris-Foulkes estimate   =    -140.93848129 Ry
     estimated scf accuracy    <       0.00000823 Ry

     iteration #  8     ecut=    80.00 Ry     beta= 0.40
     Davidson diagonalization with overlap
     ethr =  2.59E-09,  avg # of iterations =  3.0

     total cpu time spent up to now is     1189.0 secs

     End of self-consistent calculation

          k = 0.0000 0.0000 0.0000 (448403 PWs)   bands (ev):

    -9.9541  -9.4490  -9.4356  -9.4354  -9.4239  -9.4237  -9.1416  -8.4033
    -8.4033  -8.3871  -8.3800  -8.3800  -8.3072  -8.2508  -8.2507  -7.5839
    -6.9324  -6.9323  -6.8228  -6.4780  -6.4779  -6.4768  -6.3751  -6.3750
    -5.4773  -4.8345  -4.8344  -4.8326  -4.7376  -4.7374  -4.4748  -4.4662
    -4.4436  -4.4436  -4.1293  -4.1292  -3.9782  -3.4710  -3.4669  -3.4669
    -3.4587  -3.4586  -3.3974  -3.2714  -3.2714  -3.2329  -3.2197  -2.9654
    -2.9610  -2.9610  -2.9437  -2.5134  -2.5133  -2.4425  -2.4415  -2.4368

     the Fermi energy is    -3.0906 ev

!    total energy              =    -140.93848040 Ry
     Harris-Foulkes estimate   =    -140.93848068 Ry
     estimated scf accuracy    <       0.00000044 Ry

     The total energy is the sum of the following terms:

     one-electron contribution =    -502.26086747 Ry
     hartree contribution      =     259.87483452 Ry
     xc contribution           =     -61.33156301 Ry
     ewald contribution        =     162.85929790 Ry
     smearing contrib. (-TS)   =      -0.08018233 Ry

     convergence has been achieved in   8 iterations

     Forces acting on atoms (cartesian axes, Ry/au):

     atom    1 type  1   force =    -0.00329634   -0.00116629    0.00000000
     atom    2 type  1   force =     0.00074436    0.00044343    0.00000000
     atom    3 type  1   force =     0.00089419   -0.00053253    0.00000000
     atom    4 type  1   force =     0.00190822   -0.00110537    0.00000000
     atom    5 type  1   force =    -0.00000034    0.00102757    0.00000000
     atom    6 type  1   force =    -0.00066155   -0.00034811    0.00000000
     atom    7 type  1   force =    -0.00264256   -0.00227171    0.00000000
     atom    8 type  1   force =    -0.00001325    0.00218688    0.00000000
     atom    9 type  1   force =     0.00000694    0.00000281    0.00000000
     atom   10 type  1   force =    -0.00074504    0.00043271    0.00000000
     atom   11 type  1   force =    -0.00062761    0.00342303    0.00000000
     atom   12 type  1   force =    -0.00001514   -0.00086159    0.00000000
     atom   13 type  1   force =     0.00040434    0.00023968    0.00000000
     atom   14 type  1   force =    -0.00058013    0.00058873    0.00000000
     atom   15 type  1   force =     0.00268238   -0.00226275    0.00000000
     atom   16 type  1   force =     0.00020025   -0.00079760    0.00000000
     atom   17 type  1   force =     0.00330851   -0.00119325    0.00000000
     atom   18 type  1   force =     0.00079449    0.00022254    0.00000000
     atom   19 type  1   force =     0.00064924    0.00341861    0.00000000
     atom   20 type  1   force =    -0.00190022   -0.00108410    0.00000000
     atom   21 type  1   force =    -0.00000685    0.01483116    0.00000000
     atom   22 type  1   force =     0.00059198    0.00059935    0.00000000
     atom   23 type  1   force =     0.01283958   -0.00739669    0.00000000
     atom   24 type  1   force =    -0.00001124   -0.00049296    0.00000000
     atom   25 type  1   force =    -0.00079850    0.00020749    0.00000000
     atom   26 type  1   force =    -0.00088128   -0.00054239    0.00000000
     atom   27 type  1   force =    -0.00002405    0.00076717    0.00000000
     atom   28 type  1   force =    -0.00040028    0.00022381    0.00000000
     atom   29 type  1   force =     0.00065007   -0.00035215    0.00000000
     atom   30 type  1   force =    -0.01284195   -0.00740303    0.00000000
     atom   31 type  1   force =    -0.00022823   -0.00080443    0.00000000

     Total force =     0.027548     Total SCF correction =     0.000438


     Computing stress (Cartesian axis) and pressure

          total   stress  (Ry/bohr**3)                   (kbar)     P=   -0.60
  -0.00000612   0.00000002   0.00000000         -0.90      0.00      0.00
   0.00000002  -0.00000607   0.00000000          0.00     -0.89      0.00
   0.00000000   0.00000000   0.00000002          0.00      0.00      0.00


     number of scf cycles    =   3
     number of bfgs steps    =   2

     enthalpy old            =    -140.9371107025 Ry
     enthalpy new            =    -140.9384804007 Ry

     CASE: enthalpy_new < enthalpy_old

     new trust radius        =       0.0341368192 bohr
     new conv_thr            =       0.0000010000 Ry

     new unit-cell volume =  37077.93294 a.u.^3 (  5494.38272 Ang^3 )
     density =      0.28090 g/cm^3

CELL_PARAMETERS (alat= 33.68096681)
   0.999291586   0.000002916   0.000000000
  -0.499643267   0.865415340   0.000000000
   0.000000000   0.000000000   1.122132950

ATOMIC_POSITIONS (angstrom)
Al      -0.011551850   2.567662038   0.000000000
Al       2.230061291   1.287597173   0.000000000
Al      -2.224764873   6.426003994   0.000000000
Al       0.005029795   5.138681697   0.000000000
Al      -4.452565968  10.284811498   0.000000000
Al      -2.228796029   8.996285005   0.000000000
Al      -6.687345158  14.130701192   0.000000000
Al      -4.452643426  12.859555887   0.000000000
Al       4.452665904   2.570819972   0.000000000
Al       6.675277103   1.287604430   0.000000000
Al       2.223298083   6.438508762   0.000000000
Al       4.452666465   5.137301932   0.000000000
Al       0.002337013  10.284453691   0.000000000
Al       2.220648590   8.996396120   0.000000000
Al      -2.217634473  14.130730381   0.000000000
Al      -0.003960819  12.849533832   0.000000000
Al       8.917012893   2.567670783   0.000000000
Al      11.133420969   1.291148413   0.000000000
Al       6.682169252   6.438527952   0.000000000
Al       8.900365207   5.138794698   0.000000000
Al       4.452701913  10.321254092   0.000000000
Al       6.684890757   8.996466124   0.000000000
Al       2.259416981  14.120250240   0.000000000
Al      13.357937306   2.568209347   0.000000000
Al      15.582585447   1.291126325   0.000000000
Al      11.130235122   6.426081746   0.000000000
Al      13.357960438   5.144558567   0.000000000
Al       8.903117898  10.284440560   0.000000000
Al      11.134188028   8.996370466   0.000000000
Al       6.646062250  14.120269057   0.000000000
Al       8.909431860  12.849551491   0.000000000



     Writing output data file 24al_planar_2x2_vcr.save/
     NEW-OLD atomic charge density approx. for the potential

     negative rho (up, down):  7.516E-07 0.000E+00
     extrapolated charge   92.93687, renormalised to   93.00000

     total cpu time spent up to now is     1265.6 secs

     Self-consistent Calculation

     iteration #  1     ecut=    80.00 Ry     beta= 0.40
     Davidson diagonalization with overlap
     ethr =  1.00E-06,  avg # of iterations =  5.0

     negative rho (up, down):  3.823E-07 0.000E+00

     total cpu time spent up to now is     1309.4 secs

     total energy              =    -140.94024313 Ry
     Harris-Foulkes estimate   =    -141.25298331 Ry
     estimated scf accuracy    <       0.00019057 Ry

     iteration #  2     ecut=    80.00 Ry     beta= 0.40
     Davidson diagonalization with overlap
     ethr =  2.05E-07,  avg # of iterations =  5.0

     negative rho (up, down):  3.433E-07 0.000E+00

     total cpu time spent up to now is     1348.3 secs

     total energy              =    -140.94023405 Ry
     Harris-Foulkes estimate   =    -140.94048411 Ry
     estimated scf accuracy    <       0.00184812 Ry

     iteration #  3     ecut=    80.00 Ry     beta= 0.40
     Davidson diagonalization with overlap
     ethr =  2.05E-07,  avg # of iterations =  4.0

     negative rho (up, down):  2.276E-07 0.000E+00

     total cpu time spent up to now is     1383.2 secs

     total energy              =    -140.94034952 Ry
     Harris-Foulkes estimate   =    -140.94036488 Ry
     estimated scf accuracy    <       0.00006908 Ry

     iteration #  4     ecut=    80.00 Ry     beta= 0.40
     Davidson diagonalization with overlap
     ethr =  7.43E-08,  avg # of iterations =  3.0

     negative rho (up, down):  1.621E-07 0.000E+00

     total cpu time spent up to now is     1410.7 secs

     total energy              =    -140.94035019 Ry
     Harris-Foulkes estimate   =    -140.94035808 Ry
     estimated scf accuracy    <       0.00003156 Ry

     iteration #  5     ecut=    80.00 Ry     beta= 0.40
     Davidson diagonalization with overlap
     ethr =  3.39E-08,  avg # of iterations =  4.0

     negative rho (up, down):  7.825E-08 0.000E+00

     total cpu time spent up to now is     1441.5 secs

     total energy              =    -140.94034873 Ry
     Harris-Foulkes estimate   =    -140.94036168 Ry
     estimated scf accuracy    <       0.00008675 Ry

     iteration #  6     ecut=    80.00 Ry     beta= 0.40
     Davidson diagonalization with overlap
     ethr =  3.39E-08,  avg # of iterations =  4.0

     negative rho (up, down):  2.915E-08 0.000E+00

     total cpu time spent up to now is     1468.1 secs

     total energy              =    -140.94035521 Ry
     Harris-Foulkes estimate   =    -140.94035617 Ry
     estimated scf accuracy    <       0.00000571 Ry

     iteration #  7     ecut=    80.00 Ry     beta= 0.40
     Davidson diagonalization with overlap
     ethr =  6.14E-09,  avg # of iterations =  5.0

     negative rho (up, down):  2.066E-08 0.000E+00

     total cpu time spent up to now is     1498.8 secs

     total energy              =    -140.94035549 Ry
     Harris-Foulkes estimate   =    -140.94035676 Ry
     estimated scf accuracy    <       0.00000871 Ry

     iteration #  8     ecut=    80.00 Ry     beta= 0.40
     Davidson diagonalization with overlap
     ethr =  6.14E-09,  avg # of iterations =  3.0

     total cpu time spent up to now is     1524.1 secs

     End of self-consistent calculation

          k = 0.0000 0.0000 0.0000 (448403 PWs)   bands (ev):

    -9.9552  -9.4499  -9.4391  -9.4387  -9.4211  -9.4209  -9.1386  -8.4026
    -8.4025  -8.3922  -8.3744  -8.3743  -8.3100  -8.2450  -8.2449  -7.5822
    -6.9326  -6.9325  -6.8230  -6.4781  -6.4780  -6.4693  -6.3783  -6.3783
    -5.4887  -4.8292  -4.8275  -4.8275  -4.7383  -4.7382  -4.4723  -4.4643
    -4.4443  -4.4443  -4.1351  -4.1350  -3.9787  -3.4711  -3.4672  -3.4669
    -3.4580  -3.4578  -3.3936  -3.2688  -3.2688  -3.2557  -3.2180  -2.9604
    -2.9573  -2.9572  -2.9441  -2.5082  -2.5082  -2.4404  -2.4364  -2.4355

     the Fermi energy is    -3.0902 ev

!    total energy              =    -140.94035552 Ry
     Harris-Foulkes estimate   =    -140.94035610 Ry
     estimated scf accuracy    <       0.00000093 Ry

     The total energy is the sum of the following terms:

     one-electron contribution =    -502.46989139 Ry
     hartree contribution      =     259.97852477 Ry
     xc contribution           =     -61.32826554 Ry
     ewald contribution        =     162.95861045 Ry
     smearing contrib. (-TS)   =      -0.07933382 Ry

     convergence has been achieved in   8 iterations

     Forces acting on atoms (cartesian axes, Ry/au):

     atom    1 type  1   force =    -0.00190912   -0.00107552    0.00000000
     atom    2 type  1   force =    -0.00003131   -0.00001799    0.00000000
     atom    3 type  1   force =     0.00119862   -0.00072521    0.00000000
     atom    4 type  1   force =     0.00186056   -0.00107430    0.00000000
     atom    5 type  1   force =     0.00000250    0.00138924    0.00000000
     atom    6 type  1   force =    -0.00031772   -0.00014846    0.00000000
     atom    7 type  1   force =    -0.00189546   -0.00109885    0.00000000
     atom    8 type  1   force =     0.00000923    0.00212338    0.00000000
     atom    9 type  1   force =     0.00000420    0.00000007    0.00000000
     atom   10 type  1   force =     0.00002329   -0.00003256    0.00000000
     atom   11 type  1   force =    -0.00001790    0.00215984    0.00000000
     atom   12 type  1   force =    -0.00000639    0.00004314    0.00000000
     atom   13 type  1   force =    -0.00010178   -0.00004512    0.00000000
     atom   14 type  1   force =     0.00135433    0.00181805    0.00000000
     atom   15 type  1   force =     0.00188125   -0.00109112    0.00000000
     atom   16 type  1   force =     0.00227609    0.00026815    0.00000000
     atom   17 type  1   force =     0.00190267   -0.00108460    0.00000000
     atom   18 type  1   force =     0.00090704   -0.00212223    0.00000000
     atom   19 type  1   force =     0.00001367    0.00215702    0.00000000
     atom   20 type  1   force =    -0.00185570   -0.00106870    0.00000000
     atom   21 type  1   force =     0.00001608    0.01479430    0.00000000
     atom   22 type  1   force =    -0.00136339    0.00183308    0.00000000
     atom   23 type  1   force =     0.01278816   -0.00735126    0.00000000
     atom   24 type  1   force =    -0.00001551    0.00010683    0.00000000
     atom   25 type  1   force =    -0.00088519   -0.00209563    0.00000000
     atom   26 type  1   force =    -0.00120341   -0.00073214    0.00000000
     atom   27 type  1   force =     0.00001630    0.00035324    0.00000000
     atom   28 type  1   force =     0.00007611   -0.00004442    0.00000000
     atom   29 type  1   force =     0.00033157   -0.00014105    0.00000000
     atom   30 type  1   force =    -0.01280695   -0.00736951    0.00000000
     atom   31 type  1   force =    -0.00225184    0.00027232    0.00000000

     Total force =     0.027101     Total SCF correction =     0.000646


     Computing stress (Cartesian axis) and pressure

          total   stress  (Ry/bohr**3)                   (kbar)     P=   -0.62
  -0.00000636   0.00000001   0.00000000         -0.94      0.00      0.00
   0.00000001  -0.00000631   0.00000000          0.00     -0.93      0.00
   0.00000000   0.00000000   0.00000004          0.00      0.00      0.01


     number of scf cycles    =   4
     number of bfgs steps    =   3

     enthalpy old            =    -140.9384804007 Ry
     enthalpy new            =    -140.9403555226 Ry

     CASE: enthalpy_new < enthalpy_old

     new trust radius        =       0.0511879140 bohr
     new conv_thr            =       0.0000010000 Ry

     new unit-cell volume =  37039.72610 a.u.^3 (  5488.72105 Ang^3 )
     density =      0.28119 g/cm^3

CELL_PARAMETERS (alat= 33.68096681)
   0.998774567   0.000004539   0.000000000
  -0.499383353   0.864970287   0.000000000
   0.000000000   0.000000000   1.122132950

ATOMIC_POSITIONS (angstrom)
Al      -0.018334683   2.564205738   0.000000000
Al       2.230747159   1.288031349   0.000000000
Al      -2.222193569   6.421848364   0.000000000
Al       0.008533976   5.134034510   0.000000000
Al      -4.450224412  10.281148763   0.000000000
Al      -2.229073327   8.990882536   0.000000000
Al      -6.689093201  14.118594542   0.000000000
Al      -4.450353506  12.856956194   0.000000000
Al       4.450363877   2.569508570   0.000000000
Al       6.669967336   1.288021703   0.000000000
Al       2.220616646   6.442135404   0.000000000
Al       4.450345047   5.132559883   0.000000000
Al       0.003434594  10.279829512   0.000000000
Al       2.217402604   8.992121574   0.000000000
Al      -2.211156350  14.118635256   0.000000000
Al      -0.004704295  12.840941156   0.000000000
Al       8.919253891   2.564200655   0.000000000
Al      11.129019052   1.292159473   0.000000000
Al       6.680296476   6.442151960   0.000000000
Al       8.892255741   5.134187852   0.000000000
Al       4.450413548  10.343036720   0.000000000
Al       6.683584051   8.992228775   0.000000000
Al       2.281693019  14.099510409   0.000000000
Al      13.350987934   2.565643050   0.000000000
Al      15.573175218   1.292133673   0.000000000
Al      11.123111000   6.421937465   0.000000000
Al      13.351029847   5.143596871   0.000000000
Al       8.897430888  10.279794584   0.000000000
Al      11.129854710   8.990992091   0.000000000
Al       6.619200252  14.099520233   0.000000000
Al       8.905597737  12.840954426   0.000000000



     Writing output data file 24al_planar_2x2_vcr.save/
     NEW-OLD atomic charge density approx. for the potential

     negative rho (up, down):  1.151E-06 0.000E+00
     extrapolated charge   92.90415, renormalised to   93.00000

     total cpu time spent up to now is     1599.7 secs

     Self-consistent Calculation

     iteration #  1     ecut=    80.00 Ry     beta= 0.40
     Davidson diagonalization with overlap
     ethr =  1.00E-06,  avg # of iterations =  6.0

     negative rho (up, down):  5.950E-07 0.000E+00

     total cpu time spent up to now is     1645.5 secs

     total energy              =    -140.94273026 Ry
     Harris-Foulkes estimate   =    -141.41793310 Ry
     estimated scf accuracy    <       0.00041453 Ry

     iteration #  2     ecut=    80.00 Ry     beta= 0.40
     Davidson diagonalization with overlap
     ethr =  4.46E-07,  avg # of iterations =  5.0

     negative rho (up, down):  5.374E-07 0.000E+00

     total cpu time spent up to now is     1681.8 secs

     total energy              =    -140.94268330 Ry
     Harris-Foulkes estimate   =    -140.94330465 Ry
     estimated scf accuracy    <       0.00475683 Ry

     iteration #  3     ecut=    80.00 Ry     beta= 0.40
     Davidson diagonalization with overlap
     ethr =  4.46E-07,  avg # of iterations =  4.0

     negative rho (up, down):  3.593E-07 0.000E+00

     total cpu time spent up to now is     1714.9 secs

     total energy              =    -140.94297157 Ry
     Harris-Foulkes estimate   =    -140.94299841 Ry
     estimated scf accuracy    <       0.00012048 Ry

     iteration #  4     ecut=    80.00 Ry     beta= 0.40
     Davidson diagonalization with overlap
     ethr =  1.30E-07,  avg # of iterations =  3.0

     negative rho (up, down):  2.704E-07 0.000E+00

     total cpu time spent up to now is     1742.3 secs

     total energy              =    -140.94296910 Ry
     Harris-Foulkes estimate   =    -140.94298643 Ry
     estimated scf accuracy    <       0.00007319 Ry

     iteration #  5     ecut=    80.00 Ry     beta= 0.40
     Davidson diagonalization with overlap
     ethr =  7.87E-08,  avg # of iterations =  4.0

     negative rho (up, down):  1.040E-07 0.000E+00

     total cpu time spent up to now is     1769.2 secs

     total energy              =    -140.94296783 Ry
     Harris-Foulkes estimate   =    -140.94299160 Ry
     estimated scf accuracy    <       0.00015492 Ry

     iteration #  6     ecut=    80.00 Ry     beta= 0.40
     Davidson diagonalization with overlap
     ethr =  7.87E-08,  avg # of iterations =  4.0

     negative rho (up, down):  3.494E-08 0.000E+00

     total cpu time spent up to now is     1793.4 secs

     total energy              =    -140.94297945 Ry
     Harris-Foulkes estimate   =    -140.94298081 Ry
     estimated scf accuracy    <       0.00000866 Ry

     iteration #  7     ecut=    80.00 Ry     beta= 0.40
     Davidson diagonalization with overlap
     ethr =  9.31E-09,  avg # of iterations =  5.0

     negative rho (up, down):  2.467E-08 0.000E+00

     total cpu time spent up to now is     1821.9 secs

     total energy              =    -140.94298082 Ry
     Harris-Foulkes estimate   =    -140.94298141 Ry
     estimated scf accuracy    <       0.00000376 Ry

     iteration #  8     ecut=    80.00 Ry     beta= 0.40
     Davidson diagonalization with overlap
     ethr =  4.05E-09,  avg # of iterations =  2.0

     total cpu time spent up to now is     1846.5 secs

     total energy              =    -140.94298081 Ry
     Harris-Foulkes estimate   =    -140.94298134 Ry
     estimated scf accuracy    <       0.00000335 Ry

     iteration #  9     ecut=    80.00 Ry     beta= 0.40
     Davidson diagonalization with overlap
     ethr =  3.61E-09,  avg # of iterations =  3.0

     total cpu time spent up to now is     1874.0 secs

     End of self-consistent calculation

          k = 0.0000 0.0000 0.0000 (448403 PWs)   bands (ev):

    -9.9567  -9.4510  -9.4436  -9.4435  -9.4168  -9.4165  -9.1346  -8.4017
    -8.4016  -8.3984  -8.3675  -8.3673  -8.3133  -8.2354  -8.2351  -7.5800
    -6.9330  -6.9327  -6.8234  -6.4775  -6.4774  -6.4588  -6.3819  -6.3817
    -5.5050  -4.8241  -4.8179  -4.8178  -4.7379  -4.7377  -4.4686  -4.4613
    -4.4450  -4.4448  -4.1435  -4.1433  -3.9791  -3.4711  -3.4687  -3.4686
    -3.4551  -3.4548  -3.3875  -3.2900  -3.2646  -3.2645  -3.2158  -2.9603
    -2.9513  -2.9513  -2.9356  -2.5008  -2.5008  -2.4446  -2.4281  -2.4274

     the Fermi energy is    -3.0893 ev

!    total energy              =    -140.94298077 Ry
     Harris-Foulkes estimate   =    -140.94298108 Ry
     estimated scf accuracy    <       0.00000045 Ry

     The total energy is the sum of the following terms:

     one-electron contribution =    -502.78845940 Ry
     hartree contribution      =     260.13560949 Ry
     xc contribution           =     -61.32356217 Ry
     ewald contribution        =     163.11132273 Ry
     smearing contrib. (-TS)   =      -0.07789142 Ry

     convergence has been achieved in   9 iterations

     Forces acting on atoms (cartesian axes, Ry/au):

     atom    1 type  1   force =    -0.00012020   -0.00090707    0.00000000
     atom    2 type  1   force =    -0.00101382   -0.00064407    0.00000000
     atom    3 type  1   force =     0.00162765   -0.00097698    0.00000000
     atom    4 type  1   force =     0.00180729   -0.00103586    0.00000000
     atom    5 type  1   force =    -0.00000416    0.00186663    0.00000000
     atom    6 type  1   force =     0.00013213    0.00011099    0.00000000
     atom    7 type  1   force =    -0.00087485    0.00041543    0.00000000
     atom    8 type  1   force =     0.00003163    0.00209512    0.00000000
     atom    9 type  1   force =    -0.00000996    0.00001716    0.00000000
     atom   10 type  1   force =     0.00103967   -0.00063124    0.00000000
     atom   11 type  1   force =     0.00073021    0.00052427    0.00000000
     atom   12 type  1   force =     0.00001517    0.00118999    0.00000000
     atom   13 type  1   force =    -0.00072334   -0.00043709    0.00000000
     atom   14 type  1   force =     0.00395829    0.00347916    0.00000000
     atom   15 type  1   force =     0.00080830    0.00040053    0.00000000
     atom   16 type  1   force =     0.00499054    0.00171346    0.00000000
     atom   17 type  1   force =     0.00009001   -0.00089786    0.00000000
     atom   18 type  1   force =     0.00101248   -0.00522423    0.00000000
     atom   19 type  1   force =    -0.00076799    0.00054504    0.00000000
     atom   20 type  1   force =    -0.00179263   -0.00105456    0.00000000
     atom   21 type  1   force =     0.00000852    0.01487750    0.00000000
     atom   22 type  1   force =    -0.00395974    0.00346051    0.00000000
     atom   23 type  1   force =     0.01289865   -0.00739708    0.00000000
     atom   24 type  1   force =     0.00001361    0.00081317    0.00000000
     atom   25 type  1   force =    -0.00101733   -0.00521126    0.00000000
     atom   26 type  1   force =    -0.00164327   -0.00097355    0.00000000
     atom   27 type  1   force =     0.00001452   -0.00012730    0.00000000
     atom   28 type  1   force =     0.00070633   -0.00040612    0.00000000
     atom   29 type  1   force =    -0.00011204    0.00010823    0.00000000
     atom   30 type  1   force =    -0.01288717   -0.00739439    0.00000000
     atom   31 type  1   force =    -0.00495850    0.00170147    0.00000000

     Total force =     0.029424     Total SCF correction =     0.000453


     Computing stress (Cartesian axis) and pressure

          total   stress  (Ry/bohr**3)                   (kbar)     P=   -0.65
  -0.00000672   0.00000000   0.00000000         -0.99      0.00      0.00
   0.00000000  -0.00000666   0.00000000          0.00     -0.98      0.00
   0.00000000   0.00000000   0.00000004          0.00      0.00      0.01


     number of scf cycles    =   5
     number of bfgs steps    =   4

     enthalpy old            =    -140.9403555226 Ry
     enthalpy new            =    -140.9429807746 Ry

     CASE: enthalpy_new < enthalpy_old

     new trust radius        =       0.0767424568 bohr
     new conv_thr            =       0.0000010000 Ry

     new unit-cell volume =  36982.03159 a.u.^3 (  5480.17161 Ang^3 )
     density =      0.28163 g/cm^3

CELL_PARAMETERS (alat= 33.68096681)
   0.997993219   0.000006869   0.000000000
  -0.498990661   0.864297955   0.000000000
   0.000000000   0.000000000   1.122132950

ATOMIC_POSITIONS (angstrom)
Al      -0.027734328   2.559104432   0.000000000
Al       2.231353799   1.288404168   0.000000000
Al      -2.218148429   6.415478437   0.000000000
Al       0.013752681   5.127063030   0.000000000
Al      -4.446689131  10.275786248   0.000000000
Al      -2.229286833   8.982836590   0.000000000
Al      -6.691215586  14.101004898   0.000000000
Al      -4.446885781  12.852967461   0.000000000
Al       4.446874147   2.567538668   0.000000000
Al       6.662393752   1.288387837   0.000000000
Al       2.216883507   6.446822201   0.000000000
Al       4.446849053   5.125898451   0.000000000
Al       0.004831350  10.272671443   0.000000000
Al       2.213643551   8.986361917   0.000000000
Al      -2.201911794  14.101045815   0.000000000
Al      -0.004672737  12.828615779   0.000000000
Al       8.921781718   2.559088414   0.000000000
Al      11.122376832   1.292340556   0.000000000
Al       6.677127737   6.446849739   0.000000000
Al       8.880079569   5.127261874   0.000000000
Al       4.446945706  10.375600393   0.000000000
Al       6.680470516   8.986502444   0.000000000
Al       2.315073933  14.068341027   0.000000000
Al      13.340503202   2.562057714   0.000000000
Al      15.558921526   1.292293214   0.000000000
Al      11.112181727   6.415590208   0.000000000
Al      13.340547756   5.141931094   0.000000000
Al       8.889105431  10.272617874   0.000000000
Al      11.123094991   8.982972751   0.000000000
Al       6.578906092  14.068352204   0.000000000
Al       8.898644169  12.828607399   0.000000000



     Writing output data file 24al_planar_2x2_vcr.save/
     NEW-OLD atomic charge density approx. for the potential

     negative rho (up, down):  1.734E-06 0.000E+00
     extrapolated charge   92.85503, renormalised to   93.00000

     total cpu time spent up to now is     1949.4 secs

     Self-consistent Calculation

     iteration #  1     ecut=    80.00 Ry     beta= 0.40
     Davidson diagonalization with overlap
     ethr =  1.00E-06,  avg # of iterations =  8.0

     negative rho (up, down):  9.098E-07 0.000E+00

     total cpu time spent up to now is     2005.7 secs

     total energy              =    -140.94620019 Ry
     Harris-Foulkes estimate   =    -141.66570866 Ry
     estimated scf accuracy    <       0.00082308 Ry

     iteration #  2     ecut=    80.00 Ry     beta= 0.40
     Davidson diagonalization with overlap
     ethr =  8.85E-07,  avg # of iterations =  5.0

     negative rho (up, down):  8.215E-07 0.000E+00

     total cpu time spent up to now is     2049.2 secs

     total energy              =    -140.94617203 Ry
     Harris-Foulkes estimate   =    -140.94738397 Ry
     estimated scf accuracy    <       0.00933505 Ry

     iteration #  3     ecut=    80.00 Ry     beta= 0.40
     Davidson diagonalization with overlap
     c_bands:  1 eigenvalues not converged
     ethr =  8.85E-07,  avg # of iterations = 20.0

     negative rho (up, down):  5.800E-07 0.000E+00

     total cpu time spent up to now is     2090.3 secs

     total energy              =    -140.94663895 Ry
     Harris-Foulkes estimate   =    -140.94669782 Ry
     estimated scf accuracy    <       0.00026345 Ry

     iteration #  4     ecut=    80.00 Ry     beta= 0.40
     Davidson diagonalization with overlap
     ethr =  2.83E-07,  avg # of iterations =  3.0

     negative rho (up, down):  4.595E-07 0.000E+00

     total cpu time spent up to now is     2117.9 secs

     total energy              =    -140.94662879 Ry
     Harris-Foulkes estimate   =    -140.94667246 Ry
     estimated scf accuracy    <       0.00023085 Ry

     iteration #  5     ecut=    80.00 Ry     beta= 0.40
     Davidson diagonalization with overlap
     ethr =  2.48E-07,  avg # of iterations =  2.0

     negative rho (up, down):  2.105E-07 0.000E+00

     total cpu time spent up to now is     2143.7 secs

     total energy              =    -140.94663414 Ry
     Harris-Foulkes estimate   =    -140.94667176 Ry
     estimated scf accuracy    <       0.00023752 Ry

     iteration #  6     ecut=    80.00 Ry     beta= 0.40
     Davidson diagonalization with overlap
     ethr =  2.48E-07,  avg # of iterations =  1.0

     negative rho (up, down):  5.392E-08 0.000E+00

     total cpu time spent up to now is     2167.9 secs

     total energy              =    -140.94664810 Ry
     Harris-Foulkes estimate   =    -140.94665453 Ry
     estimated scf accuracy    <       0.00003182 Ry

     iteration #  7     ecut=    80.00 Ry     beta= 0.40
     Davidson diagonalization with overlap
     ethr =  3.42E-08,  avg # of iterations =  3.0

     negative rho (up, down):  3.895E-08 0.000E+00

     total cpu time spent up to now is     2197.6 secs

     total energy              =    -140.94665167 Ry
     Harris-Foulkes estimate   =    -140.94665538 Ry
     estimated scf accuracy    <       0.00002144 Ry

     iteration #  8     ecut=    80.00 Ry     beta= 0.40
     Davidson diagonalization with overlap
     ethr =  2.30E-08,  avg # of iterations =  1.0

     negative rho (up, down):  2.027E-08 0.000E+00

     total cpu time spent up to now is     2224.1 secs

     total energy              =    -140.94665354 Ry
     Harris-Foulkes estimate   =    -140.94665431 Ry
     estimated scf accuracy    <       0.00000346 Ry

     iteration #  9     ecut=    80.00 Ry     beta= 0.40
     Davidson diagonalization with overlap
     ethr =  3.72E-09,  avg # of iterations =  5.0

     total cpu time spent up to now is     2256.8 secs

     total energy              =    -140.94665323 Ry
     Harris-Foulkes estimate   =    -140.94665393 Ry
     estimated scf accuracy    <       0.00000424 Ry

     iteration # 10     ecut=    80.00 Ry     beta= 0.40
     Davidson diagonalization with overlap
     ethr =  3.72E-09,  avg # of iterations =  3.0

     total cpu time spent up to now is     2280.7 secs

     total energy              =    -140.94665304 Ry
     Harris-Foulkes estimate   =    -140.94665356 Ry
     estimated scf accuracy    <       0.00000381 Ry

     iteration # 11     ecut=    80.00 Ry     beta= 0.40
     Davidson diagonalization with overlap
     ethr =  3.72E-09,  avg # of iterations =  1.0

     total cpu time spent up to now is     2303.3 secs

     End of self-consistent calculation

          k = 0.0000 0.0000 0.0000 (448403 PWs)   bands (ev):

    -9.9596  -9.4535  -9.4510  -9.4501  -9.4114  -9.4111  -9.1300  -8.4066
    -8.4031  -8.4014  -8.3600  -8.3578  -8.3185  -8.2194  -8.2190  -7.5777
    -6.9341  -6.9337  -6.8259  -6.4769  -6.4764  -6.4445  -6.3861  -6.3853
    -5.5294  -4.8180  -4.8059  -4.8056  -4.7359  -4.7356  -4.4637  -4.4570
    -4.4466  -4.4463  -4.1561  -4.1558  -3.9803  -3.4730  -3.4716  -3.4712
    -3.4503  -3.4501  -3.3780  -3.3414  -3.2595  -3.2591  -3.2133  -2.9661
    -2.9427  -2.9422  -2.9164  -2.4912  -2.4909  -2.4501  -2.4411  -2.4183

     the Fermi energy is    -3.0885 ev

!    total energy              =    -140.94665274 Ry
     Harris-Foulkes estimate   =    -140.94665316 Ry
     estimated scf accuracy    <       0.00000055 Ry

     The total energy is the sum of the following terms:

     one-electron contribution =    -503.27422035 Ry
     hartree contribution      =     260.37311574 Ry
     xc contribution           =     -61.31687213 Ry
     ewald contribution        =     163.34723879 Ry
     smearing contrib. (-TS)   =      -0.07591479 Ry

     convergence has been achieved in  11 iterations

     Forces acting on atoms (cartesian axes, Ry/au):

     atom    1 type  1   force =     0.00245585   -0.00048495    0.00000000
     atom    2 type  1   force =    -0.00232448   -0.00130596    0.00000000
     atom    3 type  1   force =     0.00194288   -0.00091268    0.00000000
     atom    4 type  1   force =     0.00221017   -0.00125261    0.00000000
     atom    5 type  1   force =    -0.00000303    0.00245511    0.00000000
     atom    6 type  1   force =     0.00082005    0.00037112    0.00000000
     atom    7 type  1   force =     0.00046832    0.00238269    0.00000000
     atom    8 type  1   force =     0.00012359    0.00205655    0.00000000
     atom    9 type  1   force =    -0.00002286    0.00004533    0.00000000
     atom   10 type  1   force =     0.00230396   -0.00123029    0.00000000
     atom   11 type  1   force =     0.00165003   -0.00184203    0.00000000
     atom   12 type  1   force =    -0.00000644    0.00266526    0.00000000
     atom   13 type  1   force =    -0.00174940   -0.00106626    0.00000000
     atom   14 type  1   force =     0.00754689    0.00571095    0.00000000
     atom   15 type  1   force =    -0.00067790    0.00224337    0.00000000
     atom   16 type  1   force =     0.00886083    0.00378152    0.00000000
     atom   17 type  1   force =    -0.00242762   -0.00040801    0.00000000
     atom   18 type  1   force =     0.00128542   -0.00955515    0.00000000
     atom   19 type  1   force =    -0.00174786   -0.00169422    0.00000000
     atom   20 type  1   force =    -0.00193400   -0.00125688    0.00000000
     atom   21 type  1   force =    -0.00002350    0.01516478    0.00000000
     atom   22 type  1   force =    -0.00763163    0.00554457    0.00000000
     atom   23 type  1   force =     0.01299035   -0.00751102    0.00000000
     atom   24 type  1   force =    -0.00000395    0.00177878    0.00000000
     atom   25 type  1   force =    -0.00126623   -0.00951408    0.00000000
     atom   26 type  1   force =    -0.00205838   -0.00102698    0.00000000
     atom   27 type  1   force =    -0.00006264   -0.00077957    0.00000000
     atom   28 type  1   force =     0.00188953   -0.00112134    0.00000000
     atom   29 type  1   force =    -0.00085117    0.00036971    0.00000000
     atom   30 type  1   force =    -0.01299447   -0.00753518    0.00000000
     atom   31 type  1   force =    -0.00876228    0.00392748    0.00000000

     Total force =     0.036505     Total SCF correction =     0.000622


     Computing stress (Cartesian axis) and pressure

          total   stress  (Ry/bohr**3)                   (kbar)     P=   -0.70
  -0.00000716  -0.00000002   0.00000000         -1.05     -0.00      0.00
  -0.00000002  -0.00000722   0.00000000         -0.00     -1.06      0.00
   0.00000000   0.00000000   0.00000000          0.00      0.00      0.00


     number of scf cycles    =   6
     number of bfgs steps    =   5

     enthalpy old            =    -140.9429807746 Ry
     enthalpy new            =    -140.9466527384 Ry

     CASE: enthalpy_new < enthalpy_old

     new trust radius        =       0.1150243639 bohr
     new conv_thr            =       0.0000010000 Ry

     new unit-cell volume =  36895.25471 a.u.^3 (  5467.31260 Ang^3 )
     density =      0.28229 g/cm^3

CELL_PARAMETERS (alat= 33.68096681)
   0.996818859   0.000009853   0.000000000
  -0.498400896   0.863284265   0.000000000
   0.000000000   0.000000000   1.122132950

ATOMIC_POSITIONS (angstrom)
Al      -0.040868075   2.551679509   0.000000000
Al       2.231824078   1.288777776   0.000000000
Al      -2.212071381   6.406042538   0.000000000
Al       0.021820863   5.116443803   0.000000000
Al      -4.441376637  10.267832104   0.000000000
Al      -2.229344166   8.970772764   0.000000000
Al      -6.693889093  14.075202060   0.000000000
Al      -4.441631824  12.846860477   0.000000000
Al       4.441620431   2.564581549   0.000000000
Al       6.651414600   1.288786626   0.000000000
Al       2.211546445   6.452905063   0.000000000
Al       4.441573175   5.116346340   0.000000000
Al       0.006532361  10.261627047   0.000000000
Al       2.209245993   8.978398790   0.000000000
Al      -2.188618709  14.075162676   0.000000000
Al      -0.003280277  12.810807820   0.000000000
Al       8.924635127   2.551681909   0.000000000
Al      11.112487965   1.291090723   0.000000000
Al       6.672056344   6.453024627   0.000000000
Al       8.861712090   5.116721330   0.000000000
Al       4.441705238  10.424259663   0.000000000
Al       6.674480166   8.978497362   0.000000000
Al       2.364924928  14.021570871   0.000000000
Al      13.324725996   2.556967197   0.000000000
Al      15.537417360   1.291021654   0.000000000
Al      11.095694480   6.406104590   0.000000000
Al      13.324734072   5.139176662   0.000000000
Al       8.877083861  10.261475692   0.000000000
Al      11.112620173   8.970942802   0.000000000
Al       6.518635926  14.021562975   0.000000000
Al       8.886869300  12.810862467   0.000000000



     Writing output data file 24al_planar_2x2_vcr.save/
     NEW-OLD atomic charge density approx. for the potential

     negative rho (up, down):  2.656E-06 0.000E+00
     extrapolated charge   92.78144, renormalised to   93.00000

     total cpu time spent up to now is     2381.6 secs

     Self-consistent Calculation

     iteration #  1     ecut=    80.00 Ry     beta= 0.40
     Davidson diagonalization with overlap
     ethr =  1.00E-06,  avg # of iterations =  9.0

     negative rho (up, down):  1.425E-06 0.000E+00

     total cpu time spent up to now is     2434.4 secs

     total energy              =    -140.95094692 Ry
     Harris-Foulkes estimate   =    -142.03749857 Ry
     estimated scf accuracy    <       0.00161989 Ry

     iteration #  2     ecut=    80.00 Ry     beta= 0.40
     Davidson diagonalization with overlap
     ethr =  1.74E-06,  avg # of iterations = 15.0

     negative rho (up, down):  1.283E-06 0.000E+00

     total cpu time spent up to now is     2477.0 secs

     total energy              =    -140.95095786 Ry
     Harris-Foulkes estimate   =    -140.95317734 Ry
     estimated scf accuracy    <       0.01646451 Ry

     iteration #  3     ecut=    80.00 Ry     beta= 0.40
     Davidson diagonalization with overlap
     ethr =  1.74E-06,  avg # of iterations =  4.0

     negative rho (up, down):  9.314E-07 0.000E+00

     total cpu time spent up to now is     2508.6 secs

     total energy              =    -140.95191254 Ry
     Harris-Foulkes estimate   =    -140.95204645 Ry
     estimated scf accuracy    <       0.00060593 Ry

     iteration #  4     ecut=    80.00 Ry     beta= 0.40
     Davidson diagonalization with overlap
     ethr =  6.52E-07,  avg # of iterations =  2.0

     negative rho (up, down):  5.918E-07 0.000E+00

     total cpu time spent up to now is     2534.1 secs

     total energy              =    -140.95192096 Ry
     Harris-Foulkes estimate   =    -140.95197327 Ry
     estimated scf accuracy    <       0.00031869 Ry

     iteration #  5     ecut=    80.00 Ry     beta= 0.40
     Davidson diagonalization with overlap
     ethr =  3.43E-07,  avg # of iterations =  4.0

     negative rho (up, down):  3.515E-07 0.000E+00

     total cpu time spent up to now is     2560.2 secs

     total energy              =    -140.95189142 Ry
     Harris-Foulkes estimate   =    -140.95197152 Ry
     estimated scf accuracy    <       0.00041291 Ry

     iteration #  6     ecut=    80.00 Ry     beta= 0.40
     Davidson diagonalization with overlap
     ethr =  3.43E-07,  avg # of iterations =  3.0

     negative rho (up, down):  8.007E-08 0.000E+00

     total cpu time spent up to now is     2585.4 secs

     total energy              =    -140.95192702 Ry
     Harris-Foulkes estimate   =    -140.95195384 Ry
     estimated scf accuracy    <       0.00017397 Ry

     iteration #  7     ecut=    80.00 Ry     beta= 0.40
     Davidson diagonalization with overlap
     ethr =  1.87E-07,  avg # of iterations =  1.0

     negative rho (up, down):  5.674E-08 0.000E+00

     total cpu time spent up to now is     2609.2 secs

     total energy              =    -140.95194046 Ry
     Harris-Foulkes estimate   =    -140.95194492 Ry
     estimated scf accuracy    <       0.00002340 Ry

     iteration #  8     ecut=    80.00 Ry     beta= 0.40
     Davidson diagonalization with overlap
     ethr =  2.52E-08,  avg # of iterations =  4.0

     negative rho (up, down):  3.515E-08 0.000E+00

     total cpu time spent up to now is     2641.5 secs

     total energy              =    -140.95194476 Ry
     Harris-Foulkes estimate   =    -140.95194753 Ry
     estimated scf accuracy    <       0.00001754 Ry

     iteration #  9     ecut=    80.00 Ry     beta= 0.40
     Davidson diagonalization with overlap
     ethr =  1.89E-08,  avg # of iterations =  2.0

     negative rho (up, down):  1.360E-08 0.000E+00

     total cpu time spent up to now is     2667.0 secs

     total energy              =    -140.95194469 Ry
     Harris-Foulkes estimate   =    -140.95194599 Ry
     estimated scf accuracy    <       0.00000560 Ry

     iteration # 10     ecut=    80.00 Ry     beta= 0.40
     Davidson diagonalization with overlap
     ethr =  6.02E-09,  avg # of iterations =  4.0

     total cpu time spent up to now is     2695.2 secs

     total energy              =    -140.95194444 Ry
     Harris-Foulkes estimate   =    -140.95194590 Ry
     estimated scf accuracy    <       0.00001126 Ry

     iteration # 11     ecut=    80.00 Ry     beta= 0.40
     Davidson diagonalization with overlap
     ethr =  6.02E-09,  avg # of iterations =  2.0

     total cpu time spent up to now is     2721.7 secs

     total energy              =    -140.95194469 Ry
     Harris-Foulkes estimate   =    -140.95194512 Ry
     estimated scf accuracy    <       0.00000164 Ry

     iteration # 12     ecut=    80.00 Ry     beta= 0.40
     Davidson diagonalization with overlap
     ethr =  1.77E-09,  avg # of iterations =  5.0

     total cpu time spent up to now is     2750.8 secs

     End of self-consistent calculation

          k = 0.0000 0.0000 0.0000 (448403 PWs)   bands (ev):

    -9.9647  -9.4613  -9.4611  -9.4568  -9.4054  -9.4051  -9.1264  -8.4190
    -8.4039  -8.4036  -8.3508  -8.3505  -8.3256  -8.1936  -8.1935  -7.5795
    -6.9368  -6.9363  -6.8303  -6.4756  -6.4755  -6.4253  -6.3905  -6.3904
    -5.5676  -4.8091  -4.7925  -4.7921  -4.7297  -4.7295  -4.4571  -4.4511
    -4.4491  -4.4490  -4.1758  -4.1755  -3.9824  -3.4775  -3.4774  -3.4722
    -3.4440  -3.4438  -3.4231  -3.3638  -3.2521  -3.2521  -3.2124  -2.9755
    -2.9300  -2.9298  -2.8857  -2.4782  -2.4777  -2.4580  -2.4395  -2.4392

     the Fermi energy is    -3.0875 ev

!    total energy              =    -140.95194445 Ry
     Harris-Foulkes estimate   =    -140.95194489 Ry
     estimated scf accuracy    <       0.00000053 Ry

     The total energy is the sum of the following terms:

     one-electron contribution =    -504.02842200 Ry
     hartree contribution      =     260.74233343 Ry
     xc contribution           =     -61.30896699 Ry
     ewald contribution        =     163.71558128 Ry
     smearing contrib. (-TS)   =      -0.07247016 Ry

     convergence has been achieved in  12 iterations

     Forces acting on atoms (cartesian axes, Ry/au):

     atom    1 type  1   force =     0.00565810   -0.00009294    0.00000000
     atom    2 type  1   force =    -0.00403336   -0.00239897    0.00000000
     atom    3 type  1   force =     0.00260865   -0.00146268    0.00000000
     atom    4 type  1   force =     0.00204965   -0.00119989    0.00000000
     atom    5 type  1   force =    -0.00007495    0.00295704    0.00000000
     atom    6 type  1   force =     0.00168750    0.00086199    0.00000000
     atom    7 type  1   force =     0.00279408    0.00507151    0.00000000
     atom    8 type  1   force =     0.00010515    0.00249447    0.00000000
     atom    9 type  1   force =    -0.00000608    0.00001416    0.00000000
     atom   10 type  1   force =     0.00411322   -0.00236663    0.00000000
     atom   11 type  1   force =     0.00292713   -0.00485567    0.00000000
     atom   12 type  1   force =     0.00004716    0.00467162    0.00000000
     atom   13 type  1   force =    -0.00303116   -0.00173622    0.00000000
     atom   14 type  1   force =     0.01249322    0.00897172    0.00000000
     atom   15 type  1   force =    -0.00298876    0.00507015    0.00000000
     atom   16 type  1   force =     0.01418081    0.00624424    0.00000000
     atom   17 type  1   force =    -0.00580965   -0.00003885    0.00000000
     atom   18 type  1   force =     0.00154229   -0.01536906    0.00000000
     atom   19 type  1   force =    -0.00300965   -0.00486443    0.00000000
     atom   20 type  1   force =    -0.00205172   -0.00129584    0.00000000
     atom   21 type  1   force =     0.00002530    0.01542414    0.00000000
     atom   22 type  1   force =    -0.01255172    0.00896754    0.00000000
     atom   23 type  1   force =     0.01335409   -0.00772998    0.00000000
     atom   24 type  1   force =     0.00005513    0.00358158    0.00000000
     atom   25 type  1   force =    -0.00151719   -0.01526283    0.00000000
     atom   26 type  1   force =    -0.00268074   -0.00140220    0.00000000
     atom   27 type  1   force =     0.00010908   -0.00200279    0.00000000
     atom   28 type  1   force =     0.00297556   -0.00163775    0.00000000
     atom   29 type  1   force =    -0.00152201    0.00087434    0.00000000
     atom   30 type  1   force =    -0.01335886   -0.00775863    0.00000000
     atom   31 type  1   force =    -0.01409029    0.00627089    0.00000000

     Total force =     0.049980     Total SCF correction =     0.000582


     Computing stress (Cartesian axis) and pressure

          total   stress  (Ry/bohr**3)                   (kbar)     P=   -0.77
  -0.00000783  -0.00000005   0.00000000         -1.15     -0.01      0.00
  -0.00000005  -0.00000791   0.00000000         -0.01     -1.16      0.00
   0.00000000   0.00000000   0.00000001          0.00      0.00      0.00


     number of scf cycles    =   7
     number of bfgs steps    =   6

     enthalpy old            =    -140.9466527384 Ry
     enthalpy new            =    -140.9519444524 Ry

     CASE: enthalpy_new < enthalpy_old

     new trust radius        =       0.1723344847 bohr
     new conv_thr            =       0.0000010000 Ry

     new unit-cell volume =  36764.80432 a.u.^3 (  5447.98185 Ang^3 )
     density =      0.28329 g/cm^3

CELL_PARAMETERS (alat= 33.68096681)
   0.995050582   0.000013966   0.000000000
  -0.497513196   0.861758584   0.000000000
   0.000000000   0.000000000   1.122132950

ATOMIC_POSITIONS (angstrom)
Al      -0.059707306   2.540679126   0.000000000
Al       2.232092352   1.289017922   0.000000000
Al      -2.202791281   6.391622516   0.000000000
Al       0.033730133   5.100566097   0.000000000
Al      -4.433423285  10.255808810   0.000000000
Al      -2.229176581   8.952774713   0.000000000
Al      -6.696994343  14.037146052   0.000000000
Al      -4.433763654  12.837875709   0.000000000
Al       4.433722625   2.560102011   0.000000000
Al       6.635385892   1.289022147   0.000000000
Al       2.203832409   6.461130850   0.000000000
Al       4.433659420   5.102496911   0.000000000
Al       0.008731642  10.244852384   0.000000000
Al       2.204019264   8.967326384   0.000000000
Al      -2.169477904  14.037093884   0.000000000
Al       0.000291406  12.784617059   0.000000000
Al       8.927883321   2.540676053   0.000000000
Al      11.097612988   1.287631298   0.000000000
Al       6.664123879   6.461263037   0.000000000
Al       8.834066232   5.100904250   0.000000000
Al       4.433844423  10.496914747   0.000000000
Al       6.664093507   8.967492644   0.000000000
Al       2.439556609  13.951395990   0.000000000
Al      13.301002601   2.549955332   0.000000000
Al      15.505020746   1.287558976   0.000000000
Al      11.070786255   6.391733321   0.000000000
Al      13.301035011   5.134560598   0.000000000
Al       8.859190187  10.244651196   0.000000000
Al      11.096710185   8.952999128   0.000000000
Al       6.428302592  13.951357113   0.000000000
Al       8.867629791  12.784660400   0.000000000



     Writing output data file 24al_planar_2x2_vcr.save/
     NEW-OLD atomic charge density approx. for the potential

     negative rho (up, down):  4.385E-06 0.000E+00
     extrapolated charge   92.67028, renormalised to   93.00000

     total cpu time spent up to now is     2826.9 secs

[...]
Al      -1.672763599  11.671011054   0.000000000
Al       0.922452724  12.255865079   0.000000000
Al       8.266658928   2.039720682   0.000000000
Al      10.549077066   0.468910979   0.000000000
Al       6.122420416   6.710061408   0.000000000
Al       6.052940820   3.892572740   0.000000000
Al       3.784440165   8.220569445   0.000000000
Al       6.089735261   9.389815859   0.000000000
Al       3.449100813  10.795969313   0.000000000
Al      10.516409246   3.148610252   0.000000000
Al      12.854405109   1.638124826   0.000000000
Al       8.319349213   4.929456337   0.000000000
Al      12.727747427   4.312517008   0.000000000
Al       8.372133748   7.819096202   0.000000000
Al      10.585853145   5.966148052   0.000000000
Al       5.934621421  11.998752832   0.000000000
Al       8.461344211  10.539144643   0.000000000
End final coordinates



     Writing output data file 24al_planar_2x2_vcr.save/

     A final scf calculation at the relaxed structure.
     The G-vectors are recalculated for the final unit cell
     Results may differ from those at the preceding step.
 
     Parallelization info
     --------------------
     sticks:   dense  smooth     PW     G-vecs:    dense   smooth      PW
     Min        2262    2262    564               324586   324586   40562
     Max        2264    2264    565               324587   324587   40567
     Sum       18103   18103   4519              2596693  2596693  324517
 


     bravais-lattice index     =            4
     lattice parameter (alat)  =      33.6810  a.u.
     unit-cell volume          =   26861.2888 (a.u.)^3
     number of atoms/cell      =           31
     number of atomic types    =            1
     number of electrons       =        93.00
     number of Kohn-Sham states=           56
     kinetic-energy cutoff     =      80.0000  Ry
     charge density cutoff     =     320.0000  Ry
     convergence threshold     =      1.0E-08
     mixing beta               =       0.4000
     number of iterations used =            8  plain     mixing
     Exchange-correlation      = PBE ( 1  4  3  4 0 0)

     celldm(1)=  33.680967  celldm(2)=   0.000000  celldm(3)=   1.122133
     celldm(4)=   0.000000  celldm(5)=   0.000000  celldm(6)=   0.000000

     crystal axes: (cart. coord. in units of alat)
               a(1) = (   0.851429   0.020993   0.000000 )  
               a(2) = (  -0.407050   0.725798   0.000000 )  
               a(3) = (   0.000000   0.000000   1.122133 )  

     reciprocal axes: (cart. coord. in units 2 pi/alat)
               b(1) = (  1.158476  0.649710  0.000000 )  
               b(2) = ( -0.033509  1.359001  0.000000 )  
               b(3) = (  0.000000  0.000000  0.891160 )  


     PseudoPot. # 1 for Al read from file:
     ./Al.upf
     MD5 check sum: 4974d48a734c9d7d1eb6780a1419d19d
     Pseudo is Norm-conserving + core correction, Zval =  3.0
     Generated using ONCVPSP code by D. R. Hamann
     Using radial grid of 1876 points,  6 beta functions with: 
                l(1) =   0
                l(2) =   0
                l(3) =   1
                l(4) =   1
                l(5) =   2
                l(6) =   2

     atomic species   valence    mass     pseudopotential
        Al             3.00    29.98200     Al( 1.00)

      2 Sym. Ops. (no inversion) found



   Cartesian axes

     site n.     atom                  positions (alat units)
         1           Al  tau(   1) = (  -0.0064892   0.1443550   0.0000000  )
         2           Al  tau(   2) = (   0.0283539  -0.0028274   0.0000000  )
         3           Al  tau(   3) = (  -0.0202139   0.2958710   0.0000000  )
         4           Al  tau(   4) = (   0.1023314   0.2362809   0.0000000  )
         5           Al  tau(   5) = (  -0.2465441   0.4637667   0.0000000  )
         6           Al  tau(   6) = (  -0.1313367   0.3761632   0.0000000  )
         7           Al  tau(   7) = (  -0.2310745   0.6031241   0.0000000  )
         8           Al  tau(   8) = (  -0.2236714   0.7440782   0.0000000  )
         9           Al  tau(   9) = (   0.2134541   0.1559851   0.0000000  )
        10           Al  tau(  10) = (   0.3286607   0.0683809   0.0000000  )
        11           Al  tau(  11) = (   0.0885991   0.3878052   0.0000000  )
        12           Al  tau(  12) = (   0.2194334   0.3111826   0.0000000  )
        13           Al  tau(  13) = (  -0.1012692   0.5138686   0.0000000  )
        14           Al  tau(  14) = (   0.0537466   0.5349927   0.0000000  )
        15           Al  tau(  15) = (  -0.0938532   0.6548213   0.0000000  )
        16           Al  tau(  16) = (   0.0517557   0.6876355   0.0000000  )
        17           Al  tau(  17) = (   0.4638145   0.1144419   0.0000000  )
        18           Al  tau(  18) = (   0.5918733   0.0263090   0.0000000  )
        19           Al  tau(  19) = (   0.3435085   0.3764791   0.0000000  )
        20           Al  tau(  20) = (   0.3396102   0.2183992   0.0000000  )
        21           Al  tau(  21) = (   0.2123323   0.4612286   0.0000000  )
        22           Al  tau(  22) = (   0.3416746   0.5268311   0.0000000  )
        23           Al  tau(  23) = (   0.1935175   0.6057256   0.0000000  )
        24           Al  tau(  24) = (   0.5900405   0.1766580   0.0000000  )
        25           Al  tau(  25) = (   0.7212176   0.0919097   0.0000000  )
        26           Al  tau(  26) = (   0.4667708   0.2765753   0.0000000  )
        27           Al  tau(  27) = (   0.7141112   0.2419609   0.0000000  )
        28           Al  tau(  28) = (   0.4697324   0.4387033   0.0000000  )
        29           Al  tau(  29) = (   0.5939367   0.3347406   0.0000000  )
        30           Al  tau(  30) = (   0.3329717   0.6732098   0.0000000  )
        31           Al  tau(  31) = (   0.4747377   0.5913161   0.0000000  )

     number of k points=     1  Methfessel-Paxton smearing, width (Ry)=  0.0500
                       cart. coord. in units 2pi/alat
        k(    1) = (   0.0000000   0.0000000   0.0000000), wk =   2.0000000

     Dense  grid:  2596693 G-vectors     FFT dimensions: ( 180, 160, 216)

     Estimated max dynamical RAM per process >     867.37 MB

     Estimated total dynamical RAM >       6.78 GB

     Initial potential from superposition of free atoms

     starting charge   92.92414, renormalised to   93.00000

     negative rho (up, down):  7.284E-05 0.000E+00
     Starting wfcs are  124 randomized atomic wfcs

     total cpu time spent up to now is    96797.8 secs

     Self-consistent Calculation

     iteration #  1     ecut=    80.00 Ry     beta= 0.40
     Davidson diagonalization with overlap
     c_bands:  3 eigenvalues not converged
     ethr =  1.00E-06,  avg # of iterations = 20.0

     negative rho (up, down):  1.139E-05 0.000E+00

     total cpu time spent up to now is    96874.3 secs

     total energy              =    -141.94850868 Ry
     Harris-Foulkes estimate   =    -142.38781800 Ry
     estimated scf accuracy    <       1.10843827 Ry

     iteration #  2     ecut=    80.00 Ry     beta= 0.40
     Davidson diagonalization with overlap
     ethr =  1.19E-03,  avg # of iterations =  5.0

     negative rho (up, down):  7.042E-06 0.000E+00

     total cpu time spent up to now is    96897.0 secs

     total energy              =    -141.89516969 Ry
     Harris-Foulkes estimate   =    -142.22014434 Ry
     estimated scf accuracy    <       0.99545774 Ry

     iteration #  3     ecut=    80.00 Ry     beta= 0.40
     Davidson diagonalization with overlap
     ethr =  1.07E-03,  avg # of iterations =  5.0

     negative rho (up, down):  2.959E-06 0.000E+00

     total cpu time spent up to now is    96919.0 secs

     total energy              =    -142.00711462 Ry
     Harris-Foulkes estimate   =    -142.14496154 Ry
     estimated scf accuracy    <       0.55302890 Ry

     iteration #  4     ecut=    80.00 Ry     beta= 0.40
     Davidson diagonalization with overlap
     ethr =  5.95E-04,  avg # of iterations =  4.0

     negative rho (up, down):  1.178E-06 0.000E+00

     total cpu time spent up to now is    96940.1 secs

     total energy              =    -142.06258222 Ry
     Harris-Foulkes estimate   =    -142.08546188 Ry
     estimated scf accuracy    <       0.07539990 Ry

     iteration #  5     ecut=    80.00 Ry     beta= 0.40
     Davidson diagonalization with overlap
     ethr =  8.11E-05,  avg # of iterations = 15.0

     negative rho (up, down):  8.097E-07 0.000E+00

     total cpu time spent up to now is    96969.4 secs

     total energy              =    -142.07321032 Ry
     Harris-Foulkes estimate   =    -142.07790613 Ry
     estimated scf accuracy    <       0.01786502 Ry

     iteration #  6     ecut=    80.00 Ry     beta= 0.40
     Davidson diagonalization with overlap
     ethr =  1.92E-05,  avg # of iterations = 10.0

     negative rho (up, down):  2.459E-07 0.000E+00

     total cpu time spent up to now is    96994.7 secs

     total energy              =    -142.07496965 Ry
     Harris-Foulkes estimate   =    -142.07716203 Ry
     estimated scf accuracy    <       0.00961406 Ry

     iteration #  7     ecut=    80.00 Ry     beta= 0.40
     Davidson diagonalization with overlap
     ethr =  1.03E-05,  avg # of iterations =  4.0

     negative rho (up, down):  5.895E-08 0.000E+00

     total cpu time spent up to now is    97016.0 secs

     total energy              =    -142.07590801 Ry
     Harris-Foulkes estimate   =    -142.07620751 Ry
     estimated scf accuracy    <       0.00118731 Ry

     iteration #  8     ecut=    80.00 Ry     beta= 0.40
     Davidson diagonalization with overlap
     ethr =  1.28E-06,  avg # of iterations = 16.0

     negative rho (up, down):  2.390E-08 0.000E+00

     total cpu time spent up to now is    97045.9 secs

     total energy              =    -142.07596081 Ry
     Harris-Foulkes estimate   =    -142.07604822 Ry
     estimated scf accuracy    <       0.00044632 Ry

     iteration #  9     ecut=    80.00 Ry     beta= 0.40
     Davidson diagonalization with overlap
     ethr =  4.80E-07,  avg # of iterations =  2.0

     total cpu time spent up to now is    97064.6 secs

     total energy              =    -142.07598395 Ry
     Harris-Foulkes estimate   =    -142.07600057 Ry
     estimated scf accuracy    <       0.00007571 Ry

     iteration # 10     ecut=    80.00 Ry     beta= 0.40
     Davidson diagonalization with overlap
     ethr =  8.14E-08,  avg # of iterations =  5.0

     total cpu time spent up to now is    97089.8 secs

     total energy              =    -142.07599762 Ry
     Harris-Foulkes estimate   =    -142.07600411 Ry
     estimated scf accuracy    <       0.00002890 Ry

     iteration # 11     ecut=    80.00 Ry     beta= 0.40
     Davidson diagonalization with overlap
     ethr =  3.11E-08,  avg # of iterations =  5.0

     total cpu time spent up to now is    97111.6 secs

     total energy              =    -142.07599987 Ry
     Harris-Foulkes estimate   =    -142.07600226 Ry
     estimated scf accuracy    <       0.00001000 Ry

     iteration # 12     ecut=    80.00 Ry     beta= 0.40
     Davidson diagonalization with overlap
     ethr =  1.08E-08,  avg # of iterations =  4.0

     total cpu time spent up to now is    97134.3 secs

     total energy              =    -142.07600081 Ry
     Harris-Foulkes estimate   =    -142.07600130 Ry
     estimated scf accuracy    <       0.00000175 Ry

     iteration # 13     ecut=    80.00 Ry     beta= 0.40
     Davidson diagonalization with overlap
     ethr =  1.88E-09,  avg # of iterations =  5.0

     total cpu time spent up to now is    97161.7 secs

     total energy              =    -142.07600081 Ry
     Harris-Foulkes estimate   =    -142.07600132 Ry
     estimated scf accuracy    <       0.00000293 Ry

     iteration # 14     ecut=    80.00 Ry     beta= 0.40
     Davidson diagonalization with overlap
     ethr =  1.88E-09,  avg # of iterations =  3.0

     total cpu time spent up to now is    97182.2 secs

     total energy              =    -142.07600081 Ry
     Harris-Foulkes estimate   =    -142.07600095 Ry
     estimated scf accuracy    <       0.00000043 Ry

     iteration # 15     ecut=    80.00 Ry     beta= 0.40
     Davidson diagonalization with overlap
     ethr =  4.59E-10,  avg # of iterations =  6.0

     total cpu time spent up to now is    97206.9 secs

     total energy              =    -142.07600075 Ry
     Harris-Foulkes estimate   =    -142.07600079 Ry
     estimated scf accuracy    <       0.00000018 Ry

     iteration # 16     ecut=    80.00 Ry     beta= 0.40
     Davidson diagonalization with overlap
     ethr =  1.95E-10,  avg # of iterations =  4.0

     total cpu time spent up to now is    97228.7 secs

     total energy              =    -142.07600070 Ry
     Harris-Foulkes estimate   =    -142.07600071 Ry
     estimated scf accuracy    <       0.00000005 Ry

     iteration # 17     ecut=    80.00 Ry     beta= 0.40
     Davidson diagonalization with overlap
     ethr =  4.87E-11,  avg # of iterations =  3.0

     total cpu time spent up to now is    97248.0 secs

     total energy              =    -142.07600067 Ry
     Harris-Foulkes estimate   =    -142.07600068 Ry
     estimated scf accuracy    <       0.00000002 Ry

     iteration # 18     ecut=    80.00 Ry     beta= 0.40
     Davidson diagonalization with overlap
     ethr =  1.69E-11,  avg # of iterations =  5.0

     total cpu time spent up to now is    97271.0 secs

     End of self-consistent calculation

          k = 0.0000 0.0000 0.0000 (324517 PWs)   bands (ev):

   -11.5959 -10.9754 -10.8659 -10.7531 -10.6934 -10.5869 -10.1829  -9.2669
    -9.2358  -9.1643  -8.9079  -8.7141  -8.7053  -8.3331  -8.1918  -8.1543
    -8.0864  -7.9057  -7.7281  -6.2426  -6.2044  -6.1200  -6.0616  -5.8996
    -5.7350  -5.6664  -5.4648  -5.3222  -5.3006  -5.1906  -5.1585  -4.8528
    -4.4745  -4.4745  -4.1971  -4.1910  -4.1172  -4.0526  -4.0161  -3.9621
    -3.9536  -3.7343  -3.6933  -3.6681  -2.5566  -2.5446  -2.4641  -2.2952
    -2.1824  -2.1528  -1.9201  -1.8509  -1.7318  -1.7223  -1.6609  -1.5614

     the Fermi energy is    -2.4324 ev

!    total energy              =    -142.07600064 Ry
     Harris-Foulkes estimate   =    -142.07600064 Ry
     estimated scf accuracy    <          4.2E-09 Ry

     The total energy is the sum of the following terms:

     one-electron contribution =    -684.10206680 Ry
     hartree contribution      =     350.79626748 Ry
     xc contribution           =     -63.66159029 Ry
     ewald contribution        =     254.92129149 Ry
     smearing contrib. (-TS)   =      -0.02990251 Ry

     convergence has been achieved in  18 iterations

     Forces acting on atoms (cartesian axes, Ry/au):

     atom    1 type  1   force =     0.00000744   -0.00000537    0.00000000
     atom    2 type  1   force =    -0.00000191   -0.00000006    0.00000000
     atom    3 type  1   force =     0.00000222    0.00000114    0.00000000
     atom    4 type  1   force =     0.00000121   -0.00000288    0.00000000
     atom    5 type  1   force =     0.00000048   -0.00000438    0.00000000
     atom    6 type  1   force =     0.00000410    0.00000529    0.00000000
     atom    7 type  1   force =    -0.00001049   -0.00000326    0.00000000
     atom    8 type  1   force =     0.00000065   -0.00000266    0.00000000
     atom    9 type  1   force =    -0.00001580    0.00000538    0.00000000
     atom   10 type  1   force =    -0.00000450   -0.00000570    0.00000000
     atom   11 type  1   force =     0.00000470   -0.00000065    0.00000000
     atom   12 type  1   force =    -0.00000839   -0.00000878    0.00000000
     atom   13 type  1   force =     0.00000621    0.00000368    0.00000000
     atom   14 type  1   force =    -0.00000020   -0.00000345    0.00000000
     atom   15 type  1   force =    -0.00000280    0.00000033    0.00000000
     atom   16 type  1   force =    -0.00000343   -0.00000901    0.00000000
     atom   17 type  1   force =    -0.00000236   -0.00000914    0.00000000
     atom   18 type  1   force =     0.00000851   -0.00000183    0.00000000
     atom   19 type  1   force =    -0.00000603    0.00000632    0.00000000
     atom   20 type  1   force =    -0.00000947    0.00000770    0.00000000
     atom   21 type  1   force =    -0.00000665   -0.00000327    0.00000000
     atom   22 type  1   force =     0.00000401   -0.00000044    0.00000000
     atom   23 type  1   force =    -0.00000624    0.00000797    0.00000000
     atom   24 type  1   force =     0.00000742    0.00001211    0.00000000
     atom   25 type  1   force =     0.00000696   -0.00000131    0.00000000
     atom   26 type  1   force =     0.00000718   -0.00000039    0.00000000
     atom   27 type  1   force =     0.00000819    0.00000113    0.00000000
     atom   28 type  1   force =    -0.00000293    0.00001318    0.00000000
     atom   29 type  1   force =    -0.00000390    0.00000130    0.00000000
     atom   30 type  1   force =     0.00000062    0.00000462    0.00000000
     atom   31 type  1   force =     0.00001522   -0.00000758    0.00000000

     Total force =     0.000049     Total SCF correction =     0.000065
     SCF correction compared to forces is large: reduce conv_thr to get better values


     Computing stress (Cartesian axis) and pressure

          total   stress  (Ry/bohr**3)                   (kbar)     P=    0.00
   0.00000004   0.00000000   0.00000000          0.01      0.00      0.00
   0.00000000   0.00000003   0.00000000          0.00      0.00      0.00
   0.00000000   0.00000000  -0.00000001          0.00      0.00     -0.00


     Writing output data file 24al_planar_2x2_vcr.save/
 
     init_run     :     48.25s CPU     56.50s WALL (       2 calls)
     electrons    :  66519.83s CPU  77898.72s WALL (     255 calls)
     update_pot   :   4269.21s CPU   4344.30s WALL (     253 calls)
     forces       :   3604.66s CPU   3753.35s WALL (     255 calls)
     stress       :  10732.97s CPU  11079.52s WALL (     255 calls)

     Called by init_run:
     wfcinit      :     27.24s CPU     34.24s WALL (       2 calls)
     potinit      :      8.44s CPU      9.08s WALL (       2 calls)
     hinit0       :      8.82s CPU      9.26s WALL (       2 calls)

     Called by electrons:
     c_bands      :  54526.09s CPU  63557.25s WALL (    2302 calls)
     sum_band     :   8148.85s CPU   9746.76s WALL (    2302 calls)
     v_of_rho     :   3509.35s CPU   4011.16s WALL (    2500 calls)
     mix_rho      :    594.73s CPU    816.97s WALL (    2302 calls)

     Called by c_bands:
     init_us_2    :    891.82s CPU    936.09s WALL (    4606 calls)
     cegterg      :  48246.21s CPU  57220.81s WALL (    2304 calls)

     Called by sum_band:

     Called by *egterg:
     h_psi        :  43862.31s CPU  52538.86s WALL (   15059 calls)
     g_psi        :    119.17s CPU    124.35s WALL (   12753 calls)
     cdiaghg      :    114.71s CPU    117.17s WALL (   14745 calls)

     Called by h_psi:
     h_psi:pot    :  43766.53s CPU  52302.12s WALL (   15059 calls)
     h_psi:calbec :   4316.43s CPU   4414.59s WALL (   15059 calls)
     vloc_psi     :  35015.15s CPU  43428.56s WALL (   15059 calls)
     add_vuspsi   :   4434.75s CPU   4458.84s WALL (   15059 calls)

     General routines
     calbec       :   4986.31s CPU   5099.76s WALL (   16334 calls)
     fft          :   3958.75s CPU   4363.49s WALL (   31685 calls)
     ffts         :    263.84s CPU    292.19s WALL (    2302 calls)
     fftw         :  37221.08s CPU  46803.01s WALL (  898778 calls)
 
     Parallel routines
     fft_scatt_xy :   5663.16s CPU   7623.26s WALL (  932765 calls)
     fft_scatt_yz :  20594.10s CPU  22571.30s WALL (  932765 calls)
 
     PWSCF        :    23h41m CPU        1d    3h 1m WALL

 
   This run was terminated on:  12: 9: 2  27Nov2020            

=------------------------------------------------------------------------------=
   JOB DONE.
=------------------------------------------------------------------------------=
