
     Program PWSCF v.6.3MaX starts on 25Nov2020 at 19:16: 2 

     This program is part of the open-source Quantum ESPRESSO suite
     for quantum simulation of materials; please cite
         "P. Giannozzi et al., J. Phys.:Condens. Matter 21 395502 (2009);
         "P. Giannozzi et al., J. Phys.:Condens. Matter 29 465901 (2017);
          URL http://www.quantum-espresso.org", 
     in publications or presentations arising from this work. More details at
     http://www.quantum-espresso.org/quote

     Parallel version (MPI), running on     8 processors

     MPI processes distributed on     3 nodes
     R & G space division:  proc/nbgrp/npool/nimage =       8
     Waiting for input...
     Reading input from standard input

     Current dimensions of program PWSCF are:
     Max number of different atomic species (ntypx) = 10
     Max number of k-points (npk) =  40000
     Max angular momentum in pseudopotentials (lmaxx) =  3

     Subspace diagonalization in iterative solution of the eigenvalue problem:
     a serial algorithm will be used

 
     Parallelization info
     --------------------
     sticks:   dense  smooth     PW     G-vecs:    dense   smooth      PW
     Min        3123    3123    778               448599   448599   56048
     Max        3124    3124    779               448604   448604   56052
     Sum       24985   24985   6229              3588803  3588803  448403
 


     bravais-lattice index     =            4
     lattice parameter (alat)  =      33.6810  a.u.
     unit-cell volume          =   37130.3117 (a.u.)^3
     number of atoms/cell      =           31
     number of atomic types    =            1
     number of electrons       =        93.00
     number of Kohn-Sham states=           56
     kinetic-energy cutoff     =      80.0000  Ry
     charge density cutoff     =     320.0000  Ry
     convergence threshold     =      1.0E-06
     mixing beta               =       0.4000
     number of iterations used =            8  plain     mixing
     Exchange-correlation      = PBE ( 1  4  3  4 0 0)
     nstep                     =          300


     celldm(1)=  33.680967  celldm(2)=   0.000000  celldm(3)=   1.122133
     celldm(4)=   0.000000  celldm(5)=   0.000000  celldm(6)=   0.000000

     crystal axes: (cart. coord. in units of alat)
               a(1) = (   1.000000   0.000000   0.000000 )  
               a(2) = (  -0.500000   0.866025   0.000000 )  
               a(3) = (   0.000000   0.000000   1.122133 )  

     reciprocal axes: (cart. coord. in units 2 pi/alat)
               b(1) = (  1.000000  0.577350  0.000000 )  
               b(2) = (  0.000000  1.154701  0.000000 )  
               b(3) = (  0.000000  0.000000  0.891160 )  


     PseudoPot. # 1 for Al read from file:
     ./Al.upf
     MD5 check sum: 4974d48a734c9d7d1eb6780a1419d19d
     Pseudo is Norm-conserving + core correction, Zval =  3.0
     Generated using ONCVPSP code by D. R. Hamann
     Using radial grid of 1876 points,  6 beta functions with: 
                l(1) =   0
                l(2) =   0
                l(3) =   1
                l(4) =   1
                l(5) =   2
                l(6) =   2

     atomic species   valence    mass     pseudopotential
        Al             3.00    29.98200     Al( 1.00)

      2 Sym. Ops. (no inversion) found



   Cartesian axes

     site n.     atom                  positions (alat units)
         1           Al  tau(   1) = (  -0.0000000   0.1443393   0.0000000  )
         2           Al  tau(   2) = (   0.1250015   0.0721696   0.0000000  )
         3           Al  tau(   3) = (  -0.1249997   0.3608472   0.0000000  )
         4           Al  tau(   4) = (  -0.2499994   0.5773550   0.0000000  )
         5           Al  tau(   5) = (  -0.1249979   0.5051854   0.0000000  )
         6           Al  tau(   6) = (  -0.3749991   0.7938629   0.0000000  )
         7           Al  tau(   7) = (  -0.2499976   0.7216932   0.0000000  )
         8           Al  tau(   8) = (   0.2500011   0.1443403   0.0000000  )
         9           Al  tau(   9) = (   0.3750027   0.0721706   0.0000000  )
        10           Al  tau(  10) = (   0.1250014   0.3608482   0.0000000  )
        11           Al  tau(  11) = (   0.2500030   0.2886785   0.0000000  )
        12           Al  tau(  12) = (   0.0000017   0.5773560   0.0000000  )
        13           Al  tau(  13) = (   0.1250033   0.5051864   0.0000000  )
        14           Al  tau(  14) = (  -0.1249980   0.7938639   0.0000000  )
        15           Al  tau(  15) = (   0.0000036   0.7216942   0.0000000  )
        16           Al  tau(  16) = (   0.5000023   0.1443413   0.0000000  )
        17           Al  tau(  17) = (   0.6250038   0.0721717   0.0000000  )
        18           Al  tau(  18) = (   0.3750026   0.3608492   0.0000000  )
        19           Al  tau(  19) = (   0.5000041   0.2886795   0.0000000  )
        20           Al  tau(  20) = (   0.2500029   0.5773571   0.0000000  )
        21           Al  tau(  21) = (   0.3750044   0.5051874   0.0000000  )
        22           Al  tau(  22) = (   0.1250032   0.7938649   0.0000000  )
        23           Al  tau(  23) = (   0.2500047   0.7216953   0.0000000  )
        24           Al  tau(  24) = (   0.7500035   0.1443423   0.0000000  )
        25           Al  tau(  25) = (   0.8750050   0.0721727   0.0000000  )
        26           Al  tau(  26) = (   0.6250038   0.3608502   0.0000000  )
        27           Al  tau(  27) = (   0.7500053   0.2886805   0.0000000  )
        28           Al  tau(  28) = (   0.5000041   0.5773581   0.0000000  )
        29           Al  tau(  29) = (   0.6250056   0.5051884   0.0000000  )
        30           Al  tau(  30) = (   0.3750044   0.7938660   0.0000000  )
        31           Al  tau(  31) = (   0.5000059   0.7216963   0.0000000  )

     number of k points=     1  Methfessel-Paxton smearing, width (Ry)=  0.0500
                       cart. coord. in units 2pi/alat
        k(    1) = (   0.0000000   0.0000000   0.0000000), wk =   2.0000000

     Dense  grid:  3588803 G-vectors     FFT dimensions: ( 192, 192, 216)

     Estimated max dynamical RAM per process >       1.15 GB

     Estimated total dynamical RAM >       9.23 GB

     Initial potential from superposition of free atoms

     starting charge   92.92414, renormalised to   93.00000

     negative rho (up, down):  9.278E-05 0.000E+00
     Starting wfcs are  124 randomized atomic wfcs

     total cpu time spent up to now is       43.5 secs

     Self-consistent Calculation

     iteration #  1     ecut=    80.00 Ry     beta= 0.40
     Davidson diagonalization with overlap
     ethr =  1.00E-02,  avg # of iterations =  2.0

     total cpu time spent up to now is       76.8 secs

     total energy              =    -140.64236670 Ry
     Harris-Foulkes estimate   =    -141.23600001 Ry
     estimated scf accuracy    <       1.54820731 Ry

     iteration #  2     ecut=    80.00 Ry     beta= 0.40
     Davidson diagonalization with overlap
     ethr =  1.66E-03,  avg # of iterations =  5.0

     total cpu time spent up to now is      111.0 secs

     total energy              =    -140.22098785 Ry
     Harris-Foulkes estimate   =    -141.45756850 Ry
     estimated scf accuracy    <       6.72386818 Ry

     iteration #  3     ecut=    80.00 Ry     beta= 0.40
     Davidson diagonalization with overlap
     ethr =  1.66E-03,  avg # of iterations =  5.0

     total cpu time spent up to now is      145.6 secs

     total energy              =    -140.82770348 Ry
     Harris-Foulkes estimate   =    -141.02265547 Ry
     estimated scf accuracy    <       1.16944687 Ry

     iteration #  4     ecut=    80.00 Ry     beta= 0.40
     Davidson diagonalization with overlap
     ethr =  1.26E-03,  avg # of iterations =  1.0

     total cpu time spent up to now is      170.4 secs

     total energy              =    -140.89983609 Ry
     Harris-Foulkes estimate   =    -140.94425766 Ry
     estimated scf accuracy    <       0.15286361 Ry

     iteration #  5     ecut=    80.00 Ry     beta= 0.40
     Davidson diagonalization with overlap
     ethr =  1.64E-04,  avg # of iterations =  5.0

     total cpu time spent up to now is      199.9 secs

     total energy              =    -140.91336225 Ry
     Harris-Foulkes estimate   =    -140.95580895 Ry
     estimated scf accuracy    <       0.29986504 Ry

     iteration #  6     ecut=    80.00 Ry     beta= 0.40
     Davidson diagonalization with overlap
     ethr =  1.64E-04,  avg # of iterations =  3.0

     total cpu time spent up to now is      226.8 secs

     total energy              =    -140.93124385 Ry
     Harris-Foulkes estimate   =    -140.93399975 Ry
     estimated scf accuracy    <       0.01152944 Ry

     iteration #  7     ecut=    80.00 Ry     beta= 0.40
     Davidson diagonalization with overlap
     ethr =  1.24E-05,  avg # of iterations =  9.0

     total cpu time spent up to now is      270.7 secs

     total energy              =    -140.93527265 Ry
     Harris-Foulkes estimate   =    -140.93758133 Ry
     estimated scf accuracy    <       0.01454828 Ry

     iteration #  8     ecut=    80.00 Ry     beta= 0.40
     Davidson diagonalization with overlap
     ethr =  1.24E-05,  avg # of iterations =  3.0

     total cpu time spent up to now is      300.6 secs

     total energy              =    -140.93498303 Ry
     Harris-Foulkes estimate   =    -140.93728918 Ry
     estimated scf accuracy    <       0.01460636 Ry

     iteration #  9     ecut=    80.00 Ry     beta= 0.40
     Davidson diagonalization with overlap
     ethr =  1.24E-05,  avg # of iterations =  1.0

     total cpu time spent up to now is      326.8 secs

     total energy              =    -140.93573837 Ry
     Harris-Foulkes estimate   =    -140.93610194 Ry
     estimated scf accuracy    <       0.00182657 Ry

     iteration # 10     ecut=    80.00 Ry     beta= 0.40
     Davidson diagonalization with overlap
     ethr =  1.96E-06,  avg # of iterations =  5.0

     total cpu time spent up to now is      359.2 secs

     total energy              =    -140.93603073 Ry
     Harris-Foulkes estimate   =    -140.93610695 Ry
     estimated scf accuracy    <       0.00021595 Ry

     iteration # 11     ecut=    80.00 Ry     beta= 0.40
     Davidson diagonalization with overlap
     ethr =  2.32E-07,  avg # of iterations =  5.0

     total cpu time spent up to now is      397.1 secs

     total energy              =    -140.93601384 Ry
     Harris-Foulkes estimate   =    -140.93619358 Ry
     estimated scf accuracy    <       0.00128760 Ry

     iteration # 12     ecut=    80.00 Ry     beta= 0.40
     Davidson diagonalization with overlap
     ethr =  2.32E-07,  avg # of iterations =  4.0

     total cpu time spent up to now is      425.9 secs

     total energy              =    -140.93610594 Ry
     Harris-Foulkes estimate   =    -140.93611687 Ry
     estimated scf accuracy    <       0.00006568 Ry

     iteration # 13     ecut=    80.00 Ry     beta= 0.40
     Davidson diagonalization with overlap
     ethr =  7.06E-08,  avg # of iterations =  3.0

     total cpu time spent up to now is      455.6 secs

     total energy              =    -140.93611004 Ry
     Harris-Foulkes estimate   =    -140.93611514 Ry
     estimated scf accuracy    <       0.00002314 Ry

     iteration # 14     ecut=    80.00 Ry     beta= 0.40
     Davidson diagonalization with overlap
     ethr =  2.49E-08,  avg # of iterations =  3.0

     total cpu time spent up to now is      482.2 secs

     total energy              =    -140.93611235 Ry
     Harris-Foulkes estimate   =    -140.93611380 Ry
     estimated scf accuracy    <       0.00000742 Ry

     iteration # 15     ecut=    80.00 Ry     beta= 0.40
     Davidson diagonalization with overlap
     ethr =  7.98E-09,  avg # of iterations =  5.0

     total cpu time spent up to now is      510.8 secs

     total energy              =    -140.93611249 Ry
     Harris-Foulkes estimate   =    -140.93611396 Ry
     estimated scf accuracy    <       0.00000815 Ry

     iteration # 16     ecut=    80.00 Ry     beta= 0.40
     Davidson diagonalization with overlap
     ethr =  7.98E-09,  avg # of iterations =  2.0

     total cpu time spent up to now is      536.3 secs

     total energy              =    -140.93611294 Ry
     Harris-Foulkes estimate   =    -140.93611341 Ry
     estimated scf accuracy    <       0.00000246 Ry

     iteration # 17     ecut=    80.00 Ry     beta= 0.40
     Davidson diagonalization with overlap
     ethr =  2.65E-09,  avg # of iterations =  3.0

     total cpu time spent up to now is      564.8 secs

     End of self-consistent calculation

          k = 0.0000 0.0000 0.0000 (448403 PWs)   bands (ev):

    -9.9530  -9.4485  -9.4330  -9.4328  -9.4260  -9.4260  -9.1458  -8.4050
    -8.4048  -8.3882  -8.3880  -8.3798  -8.3034  -8.2571  -8.2570  -7.5863
    -6.9325  -6.9324  -6.8235  -6.4866  -6.4773  -6.4773  -6.3701  -6.3700
    -5.4640  -4.8436  -4.8434  -4.8371  -4.7357  -4.7355  -4.4780  -4.4681
    -4.4430  -4.4429  -4.1225  -4.1224  -3.9780  -3.4714  -3.4688  -3.4687
    -3.4577  -3.4576  -3.4018  -3.2745  -3.2744  -3.2223  -3.2072  -2.9743
    -2.9653  -2.9653  -2.9390  -2.5199  -2.5198  -2.4494  -2.4480  -2.4315

     the Fermi energy is    -3.0911 ev

!    total energy              =    -140.93611289 Ry
     Harris-Foulkes estimate   =    -140.93611320 Ry
     estimated scf accuracy    <       0.00000039 Ry

     The total energy is the sum of the following terms:

     one-electron contribution =    -502.03649872 Ry
     hartree contribution      =     259.76360630 Ry
     xc contribution           =     -61.33580966 Ry
     ewald contribution        =     162.75357038 Ry
     smearing contrib. (-TS)   =      -0.08098118 Ry

     convergence has been achieved in  17 iterations

     Forces acting on atoms (cartesian axes, Ry/au):

     atom    1 type  1   force =     0.00007637    0.01514780    0.00000000
     atom    2 type  1   force =     0.00316201   -0.00106235    0.00000000
     atom    3 type  1   force =     0.01315206   -0.00756249    0.00000000
     atom    4 type  1   force =     0.00528943   -0.00119207    0.00000000
     atom    5 type  1   force =     0.00065908    0.00333229    0.00000000
     atom    6 type  1   force =     0.00163357    0.00515999    0.00000000
     atom    7 type  1   force =    -0.00206834   -0.00117583    0.00000000
     atom    8 type  1   force =    -0.00115320    0.00064982    0.00000000
     atom    9 type  1   force =     0.00113568   -0.00063918    0.00000000
     atom   10 type  1   force =    -0.01308493   -0.00757593    0.00000000
     atom   11 type  1   force =     0.00252840   -0.00217595    0.00000000
     atom   12 type  1   force =    -0.00002526   -0.00127506    0.00000000
     atom   13 type  1   force =    -0.00059419    0.00329687    0.00000000
     atom   14 type  1   force =    -0.00046497   -0.00025551    0.00000000
     atom   15 type  1   force =     0.00004427    0.00126734    0.00000000
     atom   16 type  1   force =    -0.00002410    0.00051939    0.00000000
     atom   17 type  1   force =    -0.00107175   -0.00061126    0.00000000
     atom   18 type  1   force =    -0.00370424   -0.00398888    0.00000000
     atom   19 type  1   force =    -0.00002271    0.00235752    0.00000000
     atom   20 type  1   force =    -0.00529952   -0.00123723    0.00000000
     atom   21 type  1   force =     0.00185269    0.00108431    0.00000000
     atom   22 type  1   force =     0.00044270   -0.00031118    0.00000000
     atom   23 type  1   force =     0.00199909   -0.00117131    0.00000000
     atom   24 type  1   force =     0.00106368    0.00064342    0.00000000
     atom   25 type  1   force =    -0.00318792   -0.00115133    0.00000000
     atom   26 type  1   force =     0.00369702   -0.00393545    0.00000000
     atom   27 type  1   force =    -0.00258241   -0.00221795    0.00000000
     atom   28 type  1   force =     0.00000632   -0.00000946    0.00000000
     atom   29 type  1   force =    -0.00187769    0.00104793    0.00000000
     atom   30 type  1   force =    -0.00156163    0.00519088    0.00000000
     atom   31 type  1   force =    -0.00001953   -0.00214914    0.00000000

     Total force =     0.031207     Total SCF correction =     0.000435


     Computing stress (Cartesian axis) and pressure

          total   stress  (Ry/bohr**3)                   (kbar)     P=   -0.57
  -0.00000578  -0.00000001   0.00000000         -0.85     -0.00      0.00
  -0.00000001  -0.00000578   0.00000000         -0.00     -0.85      0.00
   0.00000000   0.00000000   0.00000000          0.00      0.00      0.00


     BFGS Geometry Optimization

     number of scf cycles    =   1
     number of bfgs steps    =   0

     enthalpy new            =    -140.9361128897 Ry

     new trust radius        =       0.0151712884 bohr
     new conv_thr            =       0.0000010000 Ry

     new unit-cell volume =  37119.58294 a.u.^3 (  5500.55462 Ang^3 )
     density =      0.28059 g/cm^3

CELL_PARAMETERS (alat= 33.68096681)
   0.999855497  -0.000000199   0.000000000
  -0.499927921   0.865900391   0.000000000
   0.000000000   0.000000000   1.122132950

ATOMIC_POSITIONS (angstrom)
Al       0.000039311   2.580230927   0.000000000
Al       2.229277569   1.285545067   0.000000000
Al      -2.220615803   6.426520960   0.000000000
Al      -4.452349398  10.288197621   0.000000000
Al      -2.227193680   9.004482409   0.000000000
Al      -6.681857190  14.149864565   0.000000000
Al      -4.456210229  12.860403225   0.000000000
Al       4.454565663   2.572577344   0.000000000
Al       6.683382350   1.285786275   0.000000000
Al       2.220679105   6.426531161   0.000000000
Al       4.456545770   5.143279237   0.000000000
Al       0.000015513  10.288171019   0.000000000
Al       2.227320135   9.004480976   0.000000000
Al      -2.227790607  14.147016529   0.000000000
Al       0.000084472  12.861713213   0.000000000
Al       8.910339989   2.572525640   0.000000000
Al      11.137391316   1.285818356   0.000000000
Al       6.680819354   6.428446376   0.000000000
Al       8.910372894   5.145695205   0.000000000
Al       4.452401816  10.288208346   0.000000000
Al       6.683791699   9.003327616   0.000000000
Al       2.227866557  14.147004382   0.000000000
Al       4.456295689  12.860440231   0.000000000
Al      13.366092453   2.572608576   0.000000000
Al      15.591448571   1.285549915   0.000000000
Al      11.139912282   6.428491958   0.000000000
Al      13.364195475   5.143291629   0.000000000
Al       8.910386062  10.288875264   0.000000000
Al      11.136994871   9.003325676   0.000000000
Al       6.681982985  14.149932835   0.000000000
Al       8.910404552  12.859940169   0.000000000



     Writing output data file 4al_planar_2x2_vcr.save/
     NEW-OLD atomic charge density approx. for the potential

     negative rho (up, down):  2.993E-07 0.000E+00
     extrapolated charge   92.97314, renormalised to   93.00000

     total cpu time spent up to now is      661.9 secs

     Self-consistent Calculation

     iteration #  1     ecut=    80.00 Ry     beta= 0.40
     Davidson diagonalization with overlap
     ethr =  1.00E-06,  avg # of iterations =  4.0

     Threshold (ethr) on eigenvalues was too large:
     Diagonalizing with lowered threshold

     Davidson diagonalization with overlap
     ethr =  5.74E-08,  avg # of iterations =  6.0

     negative rho (up, down):  1.481E-07 0.000E+00

     total cpu time spent up to now is      723.4 secs

     total energy              =    -140.93707812 Ry
     Harris-Foulkes estimate   =    -141.07003655 Ry
     estimated scf accuracy    <       0.00007683 Ry

     iteration #  2     ecut=    80.00 Ry     beta= 0.40
     Davidson diagonalization with overlap
     ethr =  8.26E-08,  avg # of iterations =  6.0

     negative rho (up, down):  1.331E-07 0.000E+00

     total cpu time spent up to now is      757.9 secs

     total energy              =    -140.93704464 Ry
     Harris-Foulkes estimate   =    -140.93718465 Ry
     estimated scf accuracy    <       0.00107007 Ry

     iteration #  3     ecut=    80.00 Ry     beta= 0.40
     Davidson diagonalization with overlap
     ethr =  8.26E-08,  avg # of iterations =  4.0

     negative rho (up, down):  8.687E-08 0.000E+00

     total cpu time spent up to now is      789.6 secs

     total energy              =    -140.93711251 Ry
     Harris-Foulkes estimate   =    -140.93711741 Ry
     estimated scf accuracy    <       0.00002103 Ry

     iteration #  4     ecut=    80.00 Ry     beta= 0.40
     Davidson diagonalization with overlap
     ethr =  2.26E-08,  avg # of iterations =  4.0

     negative rho (up, down):  6.271E-08 0.000E+00

     total cpu time spent up to now is      815.3 secs

     total energy              =    -140.93711314 Ry
     Harris-Foulkes estimate   =    -140.93711625 Ry
     estimated scf accuracy    <       0.00001310 Ry

     iteration #  5     ecut=    80.00 Ry     beta= 0.40
     Davidson diagonalization with overlap
     ethr =  1.41E-08,  avg # of iterations =  4.0

     negative rho (up, down):  3.482E-08 0.000E+00

     total cpu time spent up to now is      842.3 secs

     total energy              =    -140.93711416 Ry
     Harris-Foulkes estimate   =    -140.93711608 Ry
     estimated scf accuracy    <       0.00001144 Ry

     iteration #  6     ecut=    80.00 Ry     beta= 0.40
     Davidson diagonalization with overlap
     ethr =  1.23E-08,  avg # of iterations =  1.0

     total cpu time spent up to now is      866.9 secs

     End of self-consistent calculation

          k = 0.0000 0.0000 0.0000 (448403 PWs)   bands (ev):

    -9.9529  -9.4483  -9.4329  -9.4327  -9.4250  -9.4249  -9.1434  -8.4036
    -8.4035  -8.3842  -8.3840  -8.3823  -8.3045  -8.2541  -8.2540  -7.5846
    -6.9319  -6.9318  -6.8226  -6.4818  -6.4772  -6.4771  -6.3718  -6.3716
    -5.4689  -4.8392  -4.8391  -4.8347  -4.7360  -4.7358  -4.4762  -4.4669
    -4.4427  -4.4427  -4.1247  -4.1246  -3.9777  -3.4710  -3.4672  -3.4672
    -3.4580  -3.4579  -3.3996  -3.2727  -3.2727  -3.2208  -3.2170  -2.9698
    -2.9630  -2.9629  -2.9407  -2.5166  -2.5166  -2.4457  -2.4447  -2.4333

     the Fermi energy is    -3.0903 ev

!    total energy              =    -140.93711501 Ry
     Harris-Foulkes estimate   =    -140.93711528 Ry
     estimated scf accuracy    <       0.00000086 Ry

     The total energy is the sum of the following terms:

     one-electron contribution =    -502.12286858 Ry
     hartree contribution      =     259.80470598 Ry
     xc contribution           =     -61.33340833 Ry
     ewald contribution        =     162.79509175 Ry
     smearing contrib. (-TS)   =      -0.08063583 Ry

     convergence has been achieved in   6 iterations

     Forces acting on atoms (cartesian axes, Ry/au):

     atom    1 type  1   force =     0.00005022    0.01498555    0.00000000
     atom    2 type  1   force =     0.00208422   -0.00036841    0.00000000
     atom    3 type  1   force =     0.01296249   -0.00748515    0.00000000
     atom    4 type  1   force =     0.00444869   -0.00118805    0.00000000
     atom    5 type  1   force =     0.00070711    0.00202252    0.00000000
     atom    6 type  1   force =     0.00122160    0.00442079    0.00000000
     atom    7 type  1   force =    -0.00200600   -0.00113338    0.00000000
     atom    8 type  1   force =    -0.00082979    0.00046865    0.00000000
     atom    9 type  1   force =     0.00091611   -0.00051194    0.00000000
     atom   10 type  1   force =    -0.01293946   -0.00748777    0.00000000
     atom   11 type  1   force =     0.00137534   -0.00158577    0.00000000
     atom   12 type  1   force =    -0.00001859   -0.00090971    0.00000000
     atom   13 type  1   force =    -0.00066659    0.00199927    0.00000000
     atom   14 type  1   force =    -0.00065888   -0.00037618    0.00000000
     atom   15 type  1   force =     0.00003680    0.00102628    0.00000000
     atom   16 type  1   force =    -0.00001217    0.00077869    0.00000000
     atom   17 type  1   force =    -0.00087833   -0.00050114    0.00000000
     atom   18 type  1   force =    -0.00323749   -0.00328189    0.00000000
     atom   19 type  1   force =    -0.00001885    0.00228588    0.00000000
     atom   20 type  1   force =    -0.00444011   -0.00121128    0.00000000
     atom   21 type  1   force =     0.00136857    0.00081162    0.00000000
     atom   22 type  1   force =     0.00064583   -0.00040819    0.00000000
     atom   23 type  1   force =     0.00195297   -0.00114778    0.00000000
     atom   24 type  1   force =     0.00076099    0.00049137    0.00000000
     atom   25 type  1   force =    -0.00208844   -0.00043356    0.00000000
     atom   26 type  1   force =     0.00325316   -0.00324657    0.00000000
     atom   27 type  1   force =    -0.00139801   -0.00160938    0.00000000
     atom   28 type  1   force =     0.00000557   -0.00001196    0.00000000
     atom   29 type  1   force =    -0.00140179    0.00077683    0.00000000
     atom   30 type  1   force =    -0.00117934    0.00443164    0.00000000
     atom   31 type  1   force =    -0.00001583   -0.00160100    0.00000000

     Total force =     0.029271     Total SCF correction =     0.000500


     Computing stress (Cartesian axis) and pressure

          total   stress  (Ry/bohr**3)                   (kbar)     P=   -0.58
  -0.00000592  -0.00000001   0.00000000         -0.87     -0.00      0.00
  -0.00000001  -0.00000592   0.00000000         -0.00     -0.87      0.00
   0.00000000   0.00000000  -0.00000006          0.00      0.00     -0.01


     number of scf cycles    =   2
     number of bfgs steps    =   1

     enthalpy old            =    -140.9361128897 Ry
     enthalpy new            =    -140.9371150088 Ry

     CASE: enthalpy_new < enthalpy_old


     WARNING: bfgs curvature condition failed, Theta= 0.854
     new trust radius        =       0.0227536482 bohr
     new conv_thr            =       0.0000010000 Ry

     new unit-cell volume =  37103.11607 a.u.^3 (  5498.11448 Ang^3 )
     density =      0.28071 g/cm^3

CELL_PARAMETERS (alat= 33.68096681)
   0.999633737  -0.000000471   0.000000000
  -0.499817276   0.865708407   0.000000000
   0.000000000   0.000000000   1.122132950

ATOMIC_POSITIONS (angstrom)
Al       0.000086866   2.591696387   0.000000000
Al       2.230783833   1.284749617   0.000000000
Al      -2.209696976   6.419083982   0.000000000
Al      -4.447545599  10.284964532   0.000000000
Al      -2.226151380   9.004508700   0.000000000
Al      -6.679274258  14.150492244   0.000000000
Al      -4.456849383  12.856631268   0.000000000
Al       4.452813023   2.572436350   0.000000000
Al       6.682700515   1.285050243   0.000000000
Al       2.209788848   6.419087540   0.000000000
Al       4.457013236   5.140685556   0.000000000
Al      -0.000004230  10.285047481   0.000000000
Al       2.226312861   9.004483688   0.000000000
Al      -2.227767371  14.143614739   0.000000000
Al       0.000112704  12.859755168   0.000000000
Al       8.908349609   2.572495049   0.000000000
Al      11.134158254   1.285095043   0.000000000
Al       6.676601471   6.424173960   0.000000000
Al       8.908378963   5.146401862   0.000000000
Al       4.447593483  10.284947460   0.000000000
Al       6.683551545   9.002061903   0.000000000
Al       2.227822305  14.143568447   0.000000000
Al       4.456880377  12.856660175   0.000000000
Al      13.363829744   2.572474304   0.000000000
Al      15.585979007   1.284691329   0.000000000
Al      11.140179606   6.424252180   0.000000000
Al      13.359744862   5.140670940   0.000000000
Al       8.908411692  10.286581216   0.000000000
Al      11.133253573   9.002030428   0.000000000
Al       6.679435309  14.150571746   0.000000000
Al       8.908410978  12.855633990   0.000000000



     Writing output data file 4al_planar_2x2_vcr.save/
     NEW-OLD atomic charge density approx. for the potential

     negative rho (up, down):  4.822E-07 0.000E+00
     extrapolated charge   92.95876, renormalised to   93.00000

     total cpu time spent up to now is      968.1 secs

     Self-consistent Calculation

     iteration #  1     ecut=    80.00 Ry     beta= 0.40
     Davidson diagonalization with overlap
     ethr =  1.00E-06,  avg # of iterations =  4.0

     negative rho (up, down):  2.414E-07 0.000E+00

     total cpu time spent up to now is     1005.8 secs

     total energy              =    -140.93842991 Ry
     Harris-Foulkes estimate   =    -141.14262772 Ry
     estimated scf accuracy    <       0.00009592 Ry

     iteration #  2     ecut=    80.00 Ry     beta= 0.40
     Davidson diagonalization with overlap
     ethr =  1.03E-07,  avg # of iterations =  5.0

     negative rho (up, down):  2.123E-07 0.000E+00

     total cpu time spent up to now is     1043.2 secs

     total energy              =    -140.93842789 Ry
     Harris-Foulkes estimate   =    -140.93852956 Ry
     estimated scf accuracy    <       0.00064643 Ry

     iteration #  3     ecut=    80.00 Ry     beta= 0.40
     Davidson diagonalization with overlap
     ethr =  1.03E-07,  avg # of iterations =  4.0

     negative rho (up, down):  1.404E-07 0.000E+00

     total cpu time spent up to now is     1072.7 secs

     total energy              =    -140.93847682 Ry
     Harris-Foulkes estimate   =    -140.93849006 Ry
     estimated scf accuracy    <       0.00007989 Ry

     iteration #  4     ecut=    80.00 Ry     beta= 0.40
     Davidson diagonalization with overlap
     ethr =  8.59E-08,  avg # of iterations =  1.0

     negative rho (up, down):  8.108E-08 0.000E+00

     total cpu time spent up to now is     1096.6 secs

     total energy              =    -140.93848094 Ry
     Harris-Foulkes estimate   =    -140.93848296 Ry
     estimated scf accuracy    <       0.00000835 Ry

     iteration #  5     ecut=    80.00 Ry     beta= 0.40
     Davidson diagonalization with overlap
     ethr =  8.98E-09,  avg # of iterations =  5.0

     negative rho (up, down):  5.038E-08 0.000E+00

     total cpu time spent up to now is     1128.8 secs

     total energy              =    -140.93848019 Ry
     Harris-Foulkes estimate   =    -140.93848480 Ry
     estimated scf accuracy    <       0.00002726 Ry

     iteration #  6     ecut=    80.00 Ry     beta= 0.40
     Davidson diagonalization with overlap
     ethr =  8.98E-09,  avg # of iterations =  4.0

     negative rho (up, down):  2.138E-08 0.000E+00

     total cpu time spent up to now is     1158.1 secs

     total energy              =    -140.93848252 Ry
     Harris-Foulkes estimate   =    -140.93848355 Ry
     estimated scf accuracy    <       0.00000800 Ry

     iteration #  7     ecut=    80.00 Ry     beta= 0.40
     Davidson diagonalization with overlap
     ethr =  8.60E-09,  avg # of iterations =  1.0

     negative rho (up, down):  1.219E-08 0.000E+00

     total cpu time spent up to now is     1182.3 secs

     total energy              =    -140.93848290 Ry
     Harris-Foulkes estimate   =    -140.93848320 Ry
     estimated scf accuracy    <       0.00000168 Ry

     iteration #  8     ecut=    80.00 Ry     beta= 0.40
     Davidson diagonalization with overlap
     ethr =  1.80E-09,  avg # of iterations =  5.0

     total cpu time spent up to now is     1211.1 secs

     total energy              =    -140.93848306 Ry
     Harris-Foulkes estimate   =    -140.93848332 Ry
     estimated scf accuracy    <       0.00000182 Ry

     iteration #  9     ecut=    80.00 Ry     beta= 0.40
     Davidson diagonalization with overlap
     ethr =  1.80E-09,  avg # of iterations =  2.0

     total cpu time spent up to now is     1236.4 secs

     End of self-consistent calculation

          k = 0.0000 0.0000 0.0000 (448403 PWs)   bands (ev):

    -9.9540  -9.4491  -9.4354  -9.4353  -9.4238  -9.4237  -9.1415  -8.4032
    -8.4032  -8.3871  -8.3799  -8.3799  -8.3069  -8.2509  -8.2507  -7.5837
    -6.9323  -6.9323  -6.8227  -6.4780  -6.4778  -6.4767  -6.3750  -6.3749
    -5.4773  -4.8344  -4.8344  -4.8326  -4.7374  -4.7374  -4.4747  -4.4661
    -4.4436  -4.4435  -4.1291  -4.1290  -3.9782  -3.4712  -3.4668  -3.4668
    -3.4586  -3.4586  -3.3975  -3.2713  -3.2713  -3.2327  -3.2196  -2.9652
    -2.9610  -2.9609  -2.9436  -2.5133  -2.5132  -2.4416  -2.4410  -2.4368

     the Fermi energy is    -3.0905 ev

!    total energy              =    -140.93848312 Ry
     Harris-Foulkes estimate   =    -140.93848316 Ry
     estimated scf accuracy    <       0.00000013 Ry

     The total energy is the sum of the following terms:

     one-electron contribution =    -502.26138937 Ry
     hartree contribution      =     259.87508206 Ry
     xc contribution           =     -61.33156617 Ry
     ewald contribution        =     162.85953674 Ry
     smearing contrib. (-TS)   =      -0.08014637 Ry

     convergence has been achieved in   9 iterations

     Forces acting on atoms (cartesian axes, Ry/au):

     atom    1 type  1   force =     0.00004069    0.01479760    0.00000000
     atom    2 type  1   force =     0.00058938    0.00061698    0.00000000
     atom    3 type  1   force =     0.01284086   -0.00737889    0.00000000
     atom    4 type  1   force =     0.00330770   -0.00113736    0.00000000
     atom    5 type  1   force =     0.00082172    0.00022562    0.00000000
     atom    6 type  1   force =     0.00069488    0.00342994    0.00000000
     atom    7 type  1   force =    -0.00195090   -0.00111589    0.00000000
     atom    8 type  1   force =    -0.00041320    0.00022145    0.00000000
     atom    9 type  1   force =     0.00063155   -0.00032208    0.00000000
     atom   10 type  1   force =    -0.01280758   -0.00739591    0.00000000
     atom   11 type  1   force =    -0.00020483   -0.00078450    0.00000000
     atom   12 type  1   force =    -0.00002414   -0.00045530    0.00000000
     atom   13 type  1   force =    -0.00076716    0.00021467    0.00000000
     atom   14 type  1   force =    -0.00091093   -0.00052617    0.00000000
     atom   15 type  1   force =     0.00004292    0.00070334    0.00000000
     atom   16 type  1   force =    -0.00002425    0.00104568    0.00000000
     atom   17 type  1   force =    -0.00058902   -0.00033744    0.00000000
     atom   18 type  1   force =    -0.00264727   -0.00232228    0.00000000
     atom   19 type  1   force =    -0.00000990    0.00222682    0.00000000
     atom   20 type  1   force =    -0.00332522   -0.00116413    0.00000000
     atom   21 type  1   force =     0.00075375    0.00045307    0.00000000
     atom   22 type  1   force =     0.00088262   -0.00055121    0.00000000
     atom   23 type  1   force =     0.00190773   -0.00111730    0.00000000
     atom   24 type  1   force =     0.00036692    0.00022974    0.00000000
     atom   25 type  1   force =    -0.00059964    0.00056949    0.00000000
     atom   26 type  1   force =     0.00265160   -0.00227125    0.00000000
     atom   27 type  1   force =     0.00017199   -0.00081689    0.00000000
     atom   28 type  1   force =     0.00000770    0.00000113    0.00000000
     atom   29 type  1   force =    -0.00077153    0.00041738    0.00000000
     atom   30 type  1   force =    -0.00063234    0.00343421    0.00000000
     atom   31 type  1   force =    -0.00003407   -0.00089050    0.00000000

     Total force =     0.027522     Total SCF correction =     0.000191


     Computing stress (Cartesian axis) and pressure

          total   stress  (Ry/bohr**3)                   (kbar)     P=   -0.60
  -0.00000610  -0.00000001   0.00000000         -0.90     -0.00      0.00
  -0.00000001  -0.00000609   0.00000000         -0.00     -0.90      0.00
   0.00000000   0.00000000   0.00000002          0.00      0.00      0.00


     number of scf cycles    =   3
     number of bfgs steps    =   2

     enthalpy old            =    -140.9371150088 Ry
     enthalpy new            =    -140.9384831157 Ry

     CASE: enthalpy_new < enthalpy_old

     new trust radius        =       0.0341228996 bohr
     new conv_thr            =       0.0000010000 Ry

     new unit-cell volume =  37077.91874 a.u.^3 (  5494.38062 Ang^3 )
     density =      0.28090 g/cm^3

CELL_PARAMETERS (alat= 33.68096681)
   0.999294092  -0.000001082   0.000000000
  -0.499647983   0.865414836   0.000000000
   0.000000000   0.000000000   1.122132950

ATOMIC_POSITIONS (angstrom)
Al       0.000153458   2.608846260   0.000000000
Al       2.232108577   1.284160042   0.000000000
Al      -2.193300164   6.407910991   0.000000000
Al      -4.440994781  10.280075492   0.000000000
Al      -2.224496263   9.003383296   0.000000000
Al      -6.675674512  14.150751852   0.000000000
Al      -4.457758099  12.850891950   0.000000000
Al       4.450405263   2.572056009   0.000000000
Al       6.681459772   1.284052426   0.000000000
Al       2.193442709   6.407893145   0.000000000
Al       4.456707369   5.137249238   0.000000000
Al      -0.000040286  10.280569410   0.000000000
Al       2.224718202   9.003329292   0.000000000
Al      -2.227879412  14.138324935   0.000000000
Al       0.000157359  12.856538848   0.000000000
Al       8.905291965   2.572595924   0.000000000
Al      11.129406705   1.284099056   0.000000000
Al       6.670572740   6.418299523   0.000000000
Al       8.905330266   5.147404390   0.000000000
Al       4.441012678  10.280010751   0.000000000
Al       6.682770720   8.999885190   0.000000000
Al       2.227885998  14.138229273   0.000000000
Al       4.457707350  12.850917046   0.000000000
Al      13.360101910   2.572090408   0.000000000
Al      15.578578223   1.284014149   0.000000000
Al      11.140145761   6.418437991   0.000000000
Al      13.353939732   5.137184843   0.000000000
Al       8.905387171  10.283079644   0.000000000
Al      11.127944633   8.999807591   0.000000000
Al       6.675898919  14.150842627   0.000000000
Al       8.905342897  12.849518922   0.000000000



     Writing output data file 4al_planar_2x2_vcr.save/
     NEW-OLD atomic charge density approx. for the potential

     negative rho (up, down):  7.509E-07 0.000E+00
     extrapolated charge   92.93685, renormalised to   93.00000

     total cpu time spent up to now is     1336.7 secs

     Self-consistent Calculation

     iteration #  1     ecut=    80.00 Ry     beta= 0.40
     Davidson diagonalization with overlap
     ethr =  1.00E-06,  avg # of iterations =  5.0

     negative rho (up, down):  3.821E-07 0.000E+00

     total cpu time spent up to now is     1378.2 secs

     total energy              =    -140.94024478 Ry
     Harris-Foulkes estimate   =    -141.25307303 Ry
     estimated scf accuracy    <       0.00018692 Ry

     iteration #  2     ecut=    80.00 Ry     beta= 0.40
     Davidson diagonalization with overlap
     ethr =  2.01E-07,  avg # of iterations =  5.0

     negative rho (up, down):  3.435E-07 0.000E+00

     total cpu time spent up to now is     1421.9 secs

     total energy              =    -140.94023957 Ry
     Harris-Foulkes estimate   =    -140.94047880 Ry
     estimated scf accuracy    <       0.00179114 Ry

     iteration #  3     ecut=    80.00 Ry     beta= 0.40
     Davidson diagonalization with overlap
     ethr =  2.01E-07,  avg # of iterations =  4.0

     negative rho (up, down):  2.188E-07 0.000E+00

     total cpu time spent up to now is     1452.0 secs

     total energy              =    -140.94035074 Ry
     Harris-Foulkes estimate   =    -140.94036167 Ry
     estimated scf accuracy    <       0.00005004 Ry

     iteration #  4     ecut=    80.00 Ry     beta= 0.40
     Davidson diagonalization with overlap
     ethr =  5.38E-08,  avg # of iterations =  3.0

     negative rho (up, down):  1.464E-07 0.000E+00

     total cpu time spent up to now is     1477.5 secs

     total energy              =    -140.94035017 Ry
     Harris-Foulkes estimate   =    -140.94035645 Ry
     estimated scf accuracy    <       0.00002522 Ry

     iteration #  5     ecut=    80.00 Ry     beta= 0.40
     Davidson diagonalization with overlap
     ethr =  2.71E-08,  avg # of iterations =  4.0

     negative rho (up, down):  4.837E-08 0.000E+00

     total cpu time spent up to now is     1507.0 secs

     total energy              =    -140.94034795 Ry
     Harris-Foulkes estimate   =    -140.94036093 Ry
     estimated scf accuracy    <       0.00008957 Ry

     iteration #  6     ecut=    80.00 Ry     beta= 0.40
     Davidson diagonalization with overlap
     ethr =  2.71E-08,  avg # of iterations =  3.0

     negative rho (up, down):  2.227E-08 0.000E+00

     total cpu time spent up to now is     1533.9 secs

     total energy              =    -140.94035466 Ry
     Harris-Foulkes estimate   =    -140.94035501 Ry
     estimated scf accuracy    <       0.00000234 Ry

     iteration #  7     ecut=    80.00 Ry     beta= 0.40
     Davidson diagonalization with overlap
     ethr =  2.52E-09,  avg # of iterations =  5.0

     negative rho (up, down):  1.485E-08 0.000E+00

     total cpu time spent up to now is     1570.7 secs

     total energy              =    -140.94035520 Ry
     Harris-Foulkes estimate   =    -140.94035554 Ry
     estimated scf accuracy    <       0.00000253 Ry

     iteration #  8     ecut=    80.00 Ry     beta= 0.40
     Davidson diagonalization with overlap
     ethr =  2.52E-09,  avg # of iterations =  3.0

     total cpu time spent up to now is     1597.4 secs

     total energy              =    -140.94035518 Ry
     Harris-Foulkes estimate   =    -140.94035541 Ry
     estimated scf accuracy    <       0.00000159 Ry

     iteration #  9     ecut=    80.00 Ry     beta= 0.40
     Davidson diagonalization with overlap
     ethr =  1.71E-09,  avg # of iterations =  3.0

     total cpu time spent up to now is     1623.0 secs

     End of self-consistent calculation

          k = 0.0000 0.0000 0.0000 (448403 PWs)   bands (ev):

    -9.9551  -9.4501  -9.4387  -9.4384  -9.4209  -9.4206  -9.1383  -8.4023
    -8.4023  -8.3920  -8.3743  -8.3742  -8.3096  -8.2449  -8.2448  -7.5817
    -6.9325  -6.9324  -6.8227  -6.4780  -6.4779  -6.4689  -6.3781  -6.3780
    -5.4885  -4.8291  -4.8274  -4.8273  -4.7380  -4.7378  -4.4720  -4.4643
    -4.4442  -4.4441  -4.1347  -4.1347  -3.9786  -3.4714  -3.4669  -3.4666
    -3.4578  -3.4576  -3.3936  -3.2685  -3.2685  -3.2554  -3.2178  -2.9600
    -2.9571  -2.9571  -2.9438  -2.5080  -2.5080  -2.4402  -2.4357  -2.4355

     the Fermi energy is    -3.0900 ev

!    total energy              =    -140.94035508 Ry
     Harris-Foulkes estimate   =    -140.94035531 Ry
     estimated scf accuracy    <       0.00000033 Ry

     The total energy is the sum of the following terms:

     one-electron contribution =    -502.47042747 Ry
     hartree contribution      =     259.97849753 Ry
     xc contribution           =     -61.32817882 Ry
     ewald contribution        =     162.95905727 Ry
     smearing contrib. (-TS)   =      -0.07930361 Ry

     convergence has been achieved in   9 iterations

     Forces acting on atoms (cartesian axes, Ry/au):

     atom    1 type  1   force =     0.00002705    0.01474130    0.00000000
     atom    2 type  1   force =    -0.00136314    0.00183708    0.00000000
     atom    3 type  1   force =     0.01277355   -0.00736103    0.00000000
     atom    4 type  1   force =     0.00190566   -0.00104821    0.00000000
     atom    5 type  1   force =     0.00090293   -0.00208128    0.00000000
     atom    6 type  1   force =     0.00005906    0.00217654    0.00000000
     atom    7 type  1   force =    -0.00189052   -0.00108740    0.00000000
     atom    8 type  1   force =     0.00008978   -0.00005936    0.00000000
     atom    9 type  1   force =     0.00028080   -0.00014455    0.00000000
     atom   10 type  1   force =    -0.01275274   -0.00736346    0.00000000
     atom   11 type  1   force =    -0.00225865    0.00027002    0.00000000
     atom   12 type  1   force =    -0.00000808    0.00011434    0.00000000
     atom   13 type  1   force =    -0.00088820   -0.00209198    0.00000000
     atom   14 type  1   force =    -0.00124183   -0.00070016    0.00000000
     atom   15 type  1   force =     0.00003873    0.00030988    0.00000000
     atom   16 type  1   force =    -0.00001059    0.00142745    0.00000000
     atom   17 type  1   force =    -0.00026346   -0.00015484    0.00000000
     atom   18 type  1   force =    -0.00186822   -0.00114653    0.00000000
     atom   19 type  1   force =     0.00000044    0.00215884    0.00000000
     atom   20 type  1   force =    -0.00190792   -0.00107392    0.00000000
     atom   21 type  1   force =    -0.00003692    0.00000226    0.00000000
     atom   22 type  1   force =     0.00122051   -0.00072273    0.00000000
     atom   23 type  1   force =     0.00186212   -0.00108011    0.00000000
     atom   24 type  1   force =    -0.00012815   -0.00006245    0.00000000
     atom   25 type  1   force =     0.00136905    0.00181253    0.00000000
     atom   26 type  1   force =     0.00185216   -0.00110828    0.00000000
     atom   27 type  1   force =     0.00224835    0.00027126    0.00000000
     atom   28 type  1   force =     0.00000155   -0.00000233    0.00000000
     atom   29 type  1   force =     0.00003155   -0.00003315    0.00000000
     atom   30 type  1   force =    -0.00002422    0.00216308    0.00000000
     atom   31 type  1   force =    -0.00002067    0.00003718    0.00000000

     Total force =     0.027044     Total SCF correction =     0.000428


     Computing stress (Cartesian axis) and pressure

          total   stress  (Ry/bohr**3)                   (kbar)     P=   -0.62
  -0.00000634  -0.00000002   0.00000000         -0.93     -0.00      0.00
  -0.00000002  -0.00000634   0.00000000         -0.00     -0.93      0.00
   0.00000000   0.00000000   0.00000002          0.00      0.00      0.00


     number of scf cycles    =   4
     number of bfgs steps    =   3

     enthalpy old            =    -140.9384831157 Ry
     enthalpy new            =    -140.9403550849 Ry

     CASE: enthalpy_new < enthalpy_old

     new trust radius        =       0.0511669894 bohr
     new conv_thr            =       0.0000010000 Ry

     new unit-cell volume =  37039.67128 a.u.^3 (  5488.71293 Ang^3 )
     density =      0.28119 g/cm^3

CELL_PARAMETERS (alat= 33.68096681)
   0.998778447  -0.000002099   0.000000000
  -0.499391041   0.864968965   0.000000000
   0.000000000   0.000000000   1.122132950

ATOMIC_POSITIONS (angstrom)
Al       0.000247252   2.634539070   0.000000000
Al       2.233059713   1.283896325   0.000000000
Al      -2.168719107   6.391109841   0.000000000
Al      -4.431864660  10.272730131   0.000000000
Al      -2.221966359   9.000437515   0.000000000
Al      -6.670558132  14.150399612   0.000000000
Al      -4.459064804  12.842215261   0.000000000
Al       4.447021481   2.571327785   0.000000000
Al       6.679377307   1.282630417   0.000000000
Al       2.168930265   6.391070348   0.000000000
Al       4.455148911   5.132613893   0.000000000
Al      -0.000084439  10.274078066   0.000000000
Al       2.222250546   9.000337129   0.000000000
Al      -2.228206513  14.130213310   0.000000000
Al       0.000219974  12.851429926   0.000000000
Al       8.900659974   2.572927768   0.000000000
Al      11.122374931   1.282687632   0.000000000
Al       6.661895939   6.410050818   0.000000000
Al       8.900707064   5.148839956   0.000000000
Al       4.431847676  10.272592420   0.000000000
Al       6.681147979   8.996328970   0.000000000
Al       2.228143696  14.130041956   0.000000000
Al       4.458896138  12.842239364   0.000000000
Al      13.354172314   2.571347843   0.000000000
Al      15.568412508   1.283628795   0.000000000
Al      11.139603250   6.410269964   0.000000000
Al      13.346234443   5.132496150   0.000000000
Al       8.900789931  10.277756388   0.000000000
Al      11.120327723   8.996181958   0.000000000
Al       6.670855779  14.150496569   0.000000000
Al       8.900695531  12.840746020   0.000000000



     Writing output data file 4al_planar_2x2_vcr.save/
     NEW-OLD atomic charge density approx. for the potential

     negative rho (up, down):  1.151E-06 0.000E+00
     extrapolated charge   92.90405, renormalised to   93.00000

     total cpu time spent up to now is     1727.3 secs

     Self-consistent Calculation

     iteration #  1     ecut=    80.00 Ry     beta= 0.40
     Davidson diagonalization with overlap
     ethr =  1.00E-06,  avg # of iterations =  6.0

     negative rho (up, down):  5.949E-07 0.000E+00

     total cpu time spent up to now is     1778.3 secs

     total energy              =    -140.94276173 Ry
     Harris-Foulkes estimate   =    -141.41842660 Ry
     estimated scf accuracy    <       0.00034383 Ry

     iteration #  2     ecut=    80.00 Ry     beta= 0.40
     Davidson diagonalization with overlap
     ethr =  3.70E-07,  avg # of iterations =  6.0

     negative rho (up, down):  5.331E-07 0.000E+00

     total cpu time spent up to now is     1817.2 secs

     total energy              =    -140.94278145 Ry
     Harris-Foulkes estimate   =    -140.94317970 Ry
     estimated scf accuracy    <       0.00288151 Ry

     iteration #  3     ecut=    80.00 Ry     beta= 0.40
     Davidson diagonalization with overlap
     ethr =  3.70E-07,  avg # of iterations =  4.0

     negative rho (up, down):  3.562E-07 0.000E+00

     total cpu time spent up to now is     1846.9 secs

     total energy              =    -140.94296401 Ry
     Harris-Foulkes estimate   =    -140.94299274 Ry
     estimated scf accuracy    <       0.00013593 Ry

     iteration #  4     ecut=    80.00 Ry     beta= 0.40
     Davidson diagonalization with overlap
     ethr =  1.46E-07,  avg # of iterations =  1.0

     negative rho (up, down):  2.536E-07 0.000E+00

     total cpu time spent up to now is     1871.5 secs

     total energy              =    -140.94296367 Ry
     Harris-Foulkes estimate   =    -140.94297780 Ry
     estimated scf accuracy    <       0.00005837 Ry

     iteration #  5     ecut=    80.00 Ry     beta= 0.40
     Davidson diagonalization with overlap
     ethr =  6.28E-08,  avg # of iterations =  4.0

     negative rho (up, down):  9.603E-08 0.000E+00

     total cpu time spent up to now is     1899.1 secs

     total energy              =    -140.94295961 Ry
     Harris-Foulkes estimate   =    -140.94298579 Ry
     estimated scf accuracy    <       0.00017371 Ry

     iteration #  6     ecut=    80.00 Ry     beta= 0.40
     Davidson diagonalization with overlap
     ethr =  6.28E-08,  avg # of iterations =  4.0

     negative rho (up, down):  4.249E-08 0.000E+00

     total cpu time spent up to now is     1927.3 secs

     total energy              =    -140.94297201 Ry
     Harris-Foulkes estimate   =    -140.94297413 Ry
     estimated scf accuracy    <       0.00001298 Ry

     iteration #  7     ecut=    80.00 Ry     beta= 0.40
     Davidson diagonalization with overlap
     ethr =  1.40E-08,  avg # of iterations =  5.0

     negative rho (up, down):  2.957E-08 0.000E+00

     total cpu time spent up to now is     1957.4 secs

     total energy              =    -140.94297300 Ry
     Harris-Foulkes estimate   =    -140.94297474 Ry
     estimated scf accuracy    <       0.00001264 Ry

     iteration #  8     ecut=    80.00 Ry     beta= 0.40
     Davidson diagonalization with overlap
     ethr =  1.36E-08,  avg # of iterations =  1.0

     total cpu time spent up to now is     1982.5 secs

     total energy              =    -140.94297358 Ry
     Harris-Foulkes estimate   =    -140.94297390 Ry
     estimated scf accuracy    <       0.00000211 Ry

     iteration #  9     ecut=    80.00 Ry     beta= 0.40
     Davidson diagonalization with overlap
     ethr =  2.27E-09,  avg # of iterations =  6.0

     total cpu time spent up to now is     2015.6 secs

     total energy              =    -140.94297341 Ry
     Harris-Foulkes estimate   =    -140.94297370 Ry
     estimated scf accuracy    <       0.00000217 Ry

     iteration # 10     ecut=    80.00 Ry     beta= 0.40
     Davidson diagonalization with overlap
     ethr =  2.27E-09,  avg # of iterations =  3.0

     total cpu time spent up to now is     2041.1 secs

     total energy              =    -140.94297327 Ry
     Harris-Foulkes estimate   =    -140.94297348 Ry
     estimated scf accuracy    <       0.00000192 Ry

     iteration # 11     ecut=    80.00 Ry     beta= 0.40
     Davidson diagonalization with overlap
     ethr =  2.06E-09,  avg # of iterations =  1.0

     total cpu time spent up to now is     2066.7 secs

     End of self-consistent calculation

          k = 0.0000 0.0000 0.0000 (448403 PWs)   bands (ev):

    -9.9566  -9.4513  -9.4433  -9.4431  -9.4165  -9.4164  -9.1343  -8.4015
    -8.4013  -8.3981  -8.3675  -8.3673  -8.3131  -8.2352  -8.2351  -7.5794
    -6.9328  -6.9328  -6.8231  -6.4775  -6.4773  -6.4584  -6.3817  -6.3814
    -5.5049  -4.8241  -4.8177  -4.8176  -4.7375  -4.7374  -4.4683  -4.4614
    -4.4448  -4.4448  -4.1431  -4.1431  -3.9791  -3.4716  -3.4684  -3.4682
    -3.4549  -3.4547  -3.3875  -3.2897  -3.2643  -3.2643  -3.2156  -2.9599
    -2.9512  -2.9512  -2.9352  -2.5006  -2.5006  -2.4443  -2.4290  -2.4276

     the Fermi energy is    -3.0892 ev

!    total energy              =    -140.94297292 Ry
     Harris-Foulkes estimate   =    -140.94297327 Ry
     estimated scf accuracy    <       0.00000041 Ry

     The total energy is the sum of the following terms:

     one-electron contribution =    -502.78896727 Ry
     hartree contribution      =     260.13499765 Ry
     xc contribution           =     -61.32334349 Ry
     ewald contribution        =     163.11223254 Ry
     smearing contrib. (-TS)   =      -0.07789235 Ry

     convergence has been achieved in  11 iterations

     Forces acting on atoms (cartesian axes, Ry/au):

     atom    1 type  1   force =    -0.00000101    0.01482917    0.00000000
     atom    2 type  1   force =    -0.00399535    0.00347086    0.00000000
     atom    3 type  1   force =     0.01284787   -0.00742233    0.00000000
     atom    4 type  1   force =     0.00007353   -0.00090802    0.00000000
     atom    5 type  1   force =     0.00100057   -0.00519117    0.00000000
     atom    6 type  1   force =    -0.00076220    0.00053778    0.00000000
     atom    7 type  1   force =    -0.00181762   -0.00106524    0.00000000
     atom    8 type  1   force =     0.00070111   -0.00040043    0.00000000
     atom    9 type  1   force =    -0.00012083    0.00009712    0.00000000
     atom   10 type  1   force =    -0.01283964   -0.00741809    0.00000000
     atom   11 type  1   force =    -0.00500489    0.00171560    0.00000000
     atom   12 type  1   force =     0.00000830    0.00082426    0.00000000
     atom   13 type  1   force =    -0.00100952   -0.00519533    0.00000000
     atom   14 type  1   force =    -0.00165564   -0.00095250    0.00000000
     atom   15 type  1   force =     0.00002825   -0.00015432    0.00000000
     atom   16 type  1   force =    -0.00000019    0.00191307    0.00000000
     atom   17 type  1   force =     0.00013427    0.00006820    0.00000000
     atom   18 type  1   force =    -0.00083081    0.00036943    0.00000000
     atom   19 type  1   force =     0.00002154    0.00209571    0.00000000
     atom   20 type  1   force =    -0.00007344   -0.00092030    0.00000000
     atom   21 type  1   force =    -0.00104755   -0.00059156    0.00000000
     atom   22 type  1   force =     0.00163736   -0.00093886    0.00000000
     atom   23 type  1   force =     0.00181443   -0.00104963    0.00000000
     atom   24 type  1   force =    -0.00071553   -0.00040800    0.00000000
     atom   25 type  1   force =     0.00399281    0.00348521    0.00000000
     atom   26 type  1   force =     0.00081431    0.00038669    0.00000000
     atom   27 type  1   force =     0.00499075    0.00171368    0.00000000
     atom   28 type  1   force =     0.00000904    0.00001074    0.00000000
     atom   29 type  1   force =     0.00103917   -0.00061279    0.00000000
     atom   30 type  1   force =     0.00076800    0.00051361    0.00000000
     atom   31 type  1   force =    -0.00000711    0.00119744    0.00000000

     Total force =     0.029384     Total SCF correction =     0.000535


     Computing stress (Cartesian axis) and pressure

          total   stress  (Ry/bohr**3)                   (kbar)     P=   -0.66
  -0.00000669  -0.00000002   0.00000000         -0.98     -0.00      0.00
  -0.00000002  -0.00000670   0.00000000         -0.00     -0.98      0.00
   0.00000000   0.00000000   0.00000001          0.00      0.00      0.00


     number of scf cycles    =   5
     number of bfgs steps    =   4

     enthalpy old            =    -140.9403550849 Ry
     enthalpy new            =    -140.9429729166 Ry

     CASE: enthalpy_new < enthalpy_old

     new trust radius        =       0.0767109518 bohr
     new conv_thr            =       0.0000010000 Ry

     new unit-cell volume =  36981.95079 a.u.^3 (  5480.15964 Ang^3 )
     density =      0.28163 g/cm^3

CELL_PARAMETERS (alat= 33.68096681)
   0.997999904  -0.000003775   0.000000000
  -0.499003221   0.864295599   0.000000000
   0.000000000   0.000000000   1.122132950

ATOMIC_POSITIONS (angstrom)
Al       0.000374247   2.673006170   0.000000000
Al       2.233334492   1.284178890   0.000000000
Al      -2.131888029   6.365891593   0.000000000
Al      -4.418946069  10.261741608   0.000000000
Al      -2.218139004   8.994636429   0.000000000
Al      -6.663194291  14.149072361   0.000000000
Al      -4.460956737  12.829148726   0.000000000
Al       4.442167439   2.570086843   0.000000000
Al       6.676059835   1.280587487   0.000000000
Al       2.132195897   6.365822758   0.000000000
Al       4.451614952   5.126269601   0.000000000
Al      -0.000143308  10.264576926   0.000000000
Al       2.218503604   8.994467354   0.000000000
Al      -2.228848116  14.117868257   0.000000000
Al       0.000305033  12.843509823   0.000000000
Al       8.893672162   2.573600904   0.000000000
Al      11.111932380   1.280652434   0.000000000
Al       6.649317036   6.398292359   0.000000000
Al       8.893737048   5.150922789   0.000000000
Al       4.418875359  10.261500672   0.000000000
Al       6.678252670   8.990691713   0.000000000
Al       2.228679659  14.117603191   0.000000000
Al       4.460619390  12.829173992   0.000000000
Al      13.344975081   2.570082167   0.000000000
Al      15.554216281   1.283744980   0.000000000
Al      11.138263024   6.398618696   0.000000000
Al      13.335774176   5.126063660   0.000000000
Al       8.893852746  10.269722487   0.000000000
Al      11.109265407   8.990449528   0.000000000
Al       6.663581504  14.149174766   0.000000000
Al       8.893686954  12.828002969   0.000000000



     Writing output data file 4al_planar_2x2_vcr.save/
     NEW-OLD atomic charge density approx. for the potential

     negative rho (up, down):  1.732E-06 0.000E+00
     extrapolated charge   92.85497, renormalised to   93.00000

     total cpu time spent up to now is     2161.2 secs

     Self-consistent Calculation

     iteration #  1     ecut=    80.00 Ry     beta= 0.40
     Davidson diagonalization with overlap
     ethr =  1.00E-06,  avg # of iterations =  8.0

     negative rho (up, down):  9.103E-07 0.000E+00

     total cpu time spent up to now is     2214.2 secs

     total energy              =    -140.94622453 Ry
     Harris-Foulkes estimate   =    -141.66601051 Ry
     estimated scf accuracy    <       0.00074697 Ry

     iteration #  2     ecut=    80.00 Ry     beta= 0.40
     Davidson diagonalization with overlap
     ethr =  8.03E-07,  avg # of iterations =  7.0

     negative rho (up, down):  8.172E-07 0.000E+00

     total cpu time spent up to now is     2249.8 secs

     total energy              =    -140.94627374 Ry
     Harris-Foulkes estimate   =    -140.94720482 Ry
     estimated scf accuracy    <       0.00681612 Ry

     iteration #  3     ecut=    80.00 Ry     beta= 0.40
     Davidson diagonalization with overlap
     ethr =  8.03E-07,  avg # of iterations = 16.0

     negative rho (up, down):  5.765E-07 0.000E+00

     total cpu time spent up to now is     2285.8 secs

     total energy              =    -140.94662654 Ry
     Harris-Foulkes estimate   =    -140.94668963 Ry
     estimated scf accuracy    <       0.00028145 Ry

     iteration #  4     ecut=    80.00 Ry     beta= 0.40
     Davidson diagonalization with overlap
     ethr =  3.03E-07,  avg # of iterations =  2.0

     negative rho (up, down):  4.146E-07 0.000E+00

     total cpu time spent up to now is     2309.8 secs

     total energy              =    -140.94662593 Ry
     Harris-Foulkes estimate   =    -140.94665644 Ry
     estimated scf accuracy    <       0.00016122 Ry

     iteration #  5     ecut=    80.00 Ry     beta= 0.40
     Davidson diagonalization with overlap
     ethr =  1.73E-07,  avg # of iterations =  3.0

     negative rho (up, down):  2.131E-07 0.000E+00

     total cpu time spent up to now is     2335.0 secs

     total energy              =    -140.94661420 Ry
     Harris-Foulkes estimate   =    -140.94666750 Ry
     estimated scf accuracy    <       0.00034011 Ry

     iteration #  6     ecut=    80.00 Ry     beta= 0.40
     Davidson diagonalization with overlap
     ethr =  1.73E-07,  avg # of iterations =  3.0

     negative rho (up, down):  5.753E-08 0.000E+00

     total cpu time spent up to now is     2358.7 secs

     total energy              =    -140.94663796 Ry
     Harris-Foulkes estimate   =    -140.94664331 Ry
     estimated scf accuracy    <       0.00002971 Ry

     iteration #  7     ecut=    80.00 Ry     beta= 0.40
     Davidson diagonalization with overlap
     ethr =  3.19E-08,  avg # of iterations =  5.0

     negative rho (up, down):  4.204E-08 0.000E+00

     total cpu time spent up to now is     2387.9 secs

     total energy              =    -140.94664166 Ry
     Harris-Foulkes estimate   =    -140.94664534 Ry
     estimated scf accuracy    <       0.00002387 Ry

     iteration #  8     ecut=    80.00 Ry     beta= 0.40
     Davidson diagonalization with overlap
     ethr =  2.57E-08,  avg # of iterations =  3.0

     negative rho (up, down):  2.056E-08 0.000E+00

     total cpu time spent up to now is     2412.0 secs

     total energy              =    -140.94664265 Ry
     Harris-Foulkes estimate   =    -140.94664378 Ry
     estimated scf accuracy    <       0.00000582 Ry

     iteration #  9     ecut=    80.00 Ry     beta= 0.40
     Davidson diagonalization with overlap
     ethr =  6.26E-09,  avg # of iterations =  5.0

     total cpu time spent up to now is     2438.6 secs

     total energy              =    -140.94664285 Ry
     Harris-Foulkes estimate   =    -140.94664344 Ry
     estimated scf accuracy    <       0.00000323 Ry

     iteration # 10     ecut=    80.00 Ry     beta= 0.40
     Davidson diagonalization with overlap
     ethr =  3.47E-09,  avg # of iterations =  3.0

     total cpu time spent up to now is     2464.4 secs

     total energy              =    -140.94664270 Ry
     Harris-Foulkes estimate   =    -140.94664320 Ry
     estimated scf accuracy    <       0.00000314 Ry

     iteration # 11     ecut=    80.00 Ry     beta= 0.40
     Davidson diagonalization with overlap
     ethr =  3.37E-09,  avg # of iterations =  1.0

     total cpu time spent up to now is     2487.9 secs

     End of self-consistent calculation

          k = 0.0000 0.0000 0.0000 (448403 PWs)   bands (ev):

    -9.9598  -9.4537  -9.4510  -9.4504  -9.4115  -9.4111  -9.1300  -8.4069
    -8.4028  -8.4015  -8.3604  -8.3584  -8.3185  -8.2196  -8.2191  -7.5777
    -6.9343  -6.9341  -6.8255  -6.4773  -6.4767  -6.4444  -6.3859  -6.3855
    -5.5297  -4.8181  -4.8059  -4.8055  -4.7360  -4.7357  -4.4637  -4.4575
    -4.4466  -4.4464  -4.1562  -4.1558  -3.9804  -3.4728  -3.4720  -3.4715
    -3.4504  -3.4501  -3.3783  -3.3415  -3.2595  -3.2591  -3.2133  -2.9661
    -2.9428  -2.9427  -2.9164  -2.4914  -2.4908  -2.4501  -2.4411  -2.4193

     the Fermi energy is    -3.0886 ev

!    total energy              =    -140.94664239 Ry
     Harris-Foulkes estimate   =    -140.94664286 Ry
     estimated scf accuracy    <       0.00000064 Ry

     The total energy is the sum of the following terms:

     one-electron contribution =    -503.27701228 Ry
     hartree contribution      =     260.37473575 Ry
     xc contribution           =     -61.31704170 Ry
     ewald contribution        =     163.34860456 Ry
     smearing contrib. (-TS)   =      -0.07592872 Ry

     convergence has been achieved in  11 iterations

     Forces acting on atoms (cartesian axes, Ry/au):

     atom    1 type  1   force =    -0.00011825    0.01513474    0.00000000
     atom    2 type  1   force =    -0.00756058    0.00552659    0.00000000
     atom    3 type  1   force =     0.01292383   -0.00752625    0.00000000
     atom    4 type  1   force =    -0.00249448   -0.00057779    0.00000000
     atom    5 type  1   force =     0.00124430   -0.00953232    0.00000000
     atom    6 type  1   force =    -0.00183370   -0.00167763    0.00000000
     atom    7 type  1   force =    -0.00198967   -0.00124341    0.00000000
     atom    8 type  1   force =     0.00185112   -0.00101568    0.00000000
     atom    9 type  1   force =    -0.00087668    0.00036067    0.00000000
     atom   10 type  1   force =    -0.01298748   -0.00756651    0.00000000
     atom   11 type  1   force =    -0.00886023    0.00376950    0.00000000
     atom   12 type  1   force =     0.00009743    0.00170426    0.00000000
     atom   13 type  1   force =    -0.00142268   -0.00948683    0.00000000
     atom   14 type  1   force =    -0.00194513   -0.00098464    0.00000000
     atom   15 type  1   force =    -0.00010533   -0.00075677    0.00000000
     atom   16 type  1   force =     0.00000887    0.00252419    0.00000000
     atom   17 type  1   force =     0.00072771    0.00018331    0.00000000
     atom   18 type  1   force =     0.00063166    0.00230213    0.00000000
     atom   19 type  1   force =    -0.00002831    0.00200080    0.00000000
     atom   20 type  1   force =     0.00248849   -0.00039445    0.00000000
     atom   21 type  1   force =    -0.00235394   -0.00127591    0.00000000
     atom   22 type  1   force =     0.00206882   -0.00083636    0.00000000
     atom   23 type  1   force =     0.00205833   -0.00126377    0.00000000
     atom   24 type  1   force =    -0.00166191   -0.00106976    0.00000000
     atom   25 type  1   force =     0.00762874    0.00572755    0.00000000
     atom   26 type  1   force =    -0.00054490    0.00223760    0.00000000
     atom   27 type  1   force =     0.00885238    0.00391858    0.00000000
     atom   28 type  1   force =     0.00001642    0.00002626    0.00000000
     atom   29 type  1   force =     0.00243199   -0.00116923    0.00000000
     atom   30 type  1   force =     0.00173024   -0.00181344    0.00000000
     atom   31 type  1   force =     0.00002295    0.00277457    0.00000000

     Total force =     0.036490     Total SCF correction =     0.000617


     Computing stress (Cartesian axis) and pressure

          total   stress  (Ry/bohr**3)                   (kbar)     P=   -0.70
  -0.00000710   0.00000003   0.00000000         -1.04      0.00      0.00
   0.00000003  -0.00000727   0.00000000          0.00     -1.07      0.00
   0.00000000   0.00000000   0.00000002          0.00      0.00      0.00


     number of scf cycles    =   6
     number of bfgs steps    =   5

     enthalpy old            =    -140.9429729166 Ry
     enthalpy new            =    -140.9466423900 Ry

     CASE: enthalpy_new < enthalpy_old

     new trust radius        =       0.1149769022 bohr
     new conv_thr            =       0.0000010000 Ry

     new unit-cell volume =  36895.07927 a.u.^3 (  5467.28661 Ang^3 )
     density =      0.28229 g/cm^3

CELL_PARAMETERS (alat= 33.68096681)
   0.996829465  -0.000004577   0.000000000
  -0.498418697   0.863278191   0.000000000
   0.000000000   0.000000000   1.122132950

ATOMIC_POSITIONS (angstrom)
Al       0.000503796   2.730629744   0.000000000
Al       2.232513673   1.285227134   0.000000000
Al      -2.076793831   6.328074810   0.000000000
Al      -4.400476159  10.245363221   0.000000000
Al      -2.212287639   8.984345749   0.000000000
Al      -6.652453414  14.146162282   0.000000000
Al      -4.463868483  12.809337710   0.000000000
Al       4.435350828   2.567969979   0.000000000
Al       6.670756671   1.277591612   0.000000000
Al       2.077228590   6.327939142   0.000000000
Al       4.444966335   5.117474057   0.000000000
Al      -0.000161367  10.250511125   0.000000000
Al       2.212704344   8.984109184   0.000000000
Al      -2.229771316  14.099333345   0.000000000
Al       0.000370234  12.831343180   0.000000000
Al       8.883174626   2.574772740   0.000000000
Al      11.096454579   1.277588710   0.000000000
Al       6.631005458   6.381256057   0.000000000
Al       8.883228896   5.153955608   0.000000000
Al       4.400355954  10.245104778   0.000000000
Al       6.673484806   8.981980617   0.000000000
Al       2.229584268  14.099012680   0.000000000
Al       4.463359589  12.809353970   0.000000000
Al      13.330797736   2.567915521   0.000000000
Al      15.534155665   1.284672166   0.000000000
Al      11.135740197   6.381702058   0.000000000
Al      13.321402512   5.117243149   0.000000000
Al       8.883445306  10.257616197   0.000000000
Al      11.093133479   8.981683685   0.000000000
Al       6.652960893  14.146231534   0.000000000
Al       8.883190784  12.809339284   0.000000000



     Writing output data file 4al_planar_2x2_vcr.save/
     NEW-OLD atomic charge density approx. for the potential

     negative rho (up, down):  2.658E-06 0.000E+00
     extrapolated charge   92.78120, renormalised to   93.00000

     total cpu time spent up to now is     2585.0 secs

     Self-consistent Calculation

     iteration #  1     ecut=    80.00 Ry     beta= 0.40
     Davidson diagonalization with overlap
     c_bands:  1 eigenvalues not converged
     ethr =  1.00E-06,  avg # of iterations = 20.0

     negative rho (up, down):  1.550E-06 0.000E+00

     total cpu time spent up to now is     2643.6 secs

     total energy              =    -140.95078517 Ry
     Harris-Foulkes estimate   =    -142.03861703 Ry
     estimated scf accuracy    <       0.00176761 Ry

     iteration #  2     ecut=    80.00 Ry     beta= 0.40
     Davidson diagonalization with overlap
     ethr =  1.90E-06,  avg # of iterations =  7.0

     negative rho (up, down):  1.391E-06 0.000E+00

     total cpu time spent up to now is     2683.1 secs

     total energy              =    -140.95074620 Ry
     Harris-Foulkes estimate   =    -140.95335638 Ry
     estimated scf accuracy    <       0.01947368 Ry

     iteration #  3     ecut=    80.00 Ry     beta= 0.40
     Davidson diagonalization with overlap
     ethr =  1.90E-06,  avg # of iterations = 11.0

     negative rho (up, down):  9.949E-07 0.000E+00

     total cpu time spent up to now is     2717.3 secs

     total energy              =    -140.95190051 Ry
     Harris-Foulkes estimate   =    -140.95204192 Ry
     estimated scf accuracy    <       0.00063294 Ry

     iteration #  4     ecut=    80.00 Ry     beta= 0.40
     Davidson diagonalization with overlap
     ethr =  6.81E-07,  avg # of iterations =  2.0

     negative rho (up, down):  6.698E-07 0.000E+00

     total cpu time spent up to now is     2741.3 secs

     total energy              =    -140.95191050 Ry
     Harris-Foulkes estimate   =    -140.95196534 Ry
     estimated scf accuracy    <       0.00030272 Ry

     iteration #  5     ecut=    80.00 Ry     beta= 0.40
     Davidson diagonalization with overlap
     ethr =  3.26E-07,  avg # of iterations =  1.0

     negative rho (up, down):  3.802E-07 0.000E+00

     total cpu time spent up to now is     2764.7 secs

     total energy              =    -140.95188202 Ry
     Harris-Foulkes estimate   =    -140.95197226 Ry
     estimated scf accuracy    <       0.00050240 Ry

     iteration #  6     ecut=    80.00 Ry     beta= 0.40
     Davidson diagonalization with overlap
     ethr =  3.26E-07,  avg # of iterations =  1.0

     negative rho (up, down):  7.656E-08 0.000E+00

     total cpu time spent up to now is     2788.8 secs

     total energy              =    -140.95192304 Ry
     Harris-Foulkes estimate   =    -140.95194046 Ry
     estimated scf accuracy    <       0.00009988 Ry

     iteration #  7     ecut=    80.00 Ry     beta= 0.40
     Davidson diagonalization with overlap
     ethr =  1.07E-07,  avg # of iterations =  4.0

     negative rho (up, down):  5.539E-08 0.000E+00

     total cpu time spent up to now is     2815.2 secs

     total energy              =    -140.95193297 Ry
     Harris-Foulkes estimate   =    -140.95194182 Ry
     estimated scf accuracy    <       0.00005789 Ry

     iteration #  8     ecut=    80.00 Ry     beta= 0.40
     Davidson diagonalization with overlap
     ethr =  6.22E-08,  avg # of iterations =  3.0

     negative rho (up, down):  3.233E-08 0.000E+00

     total cpu time spent up to now is     2841.4 secs

     total energy              =    -140.95193748 Ry
     Harris-Foulkes estimate   =    -140.95193908 Ry
     estimated scf accuracy    <       0.00000734 Ry

     iteration #  9     ecut=    80.00 Ry     beta= 0.40
     Davidson diagonalization with overlap
     ethr =  7.90E-09,  avg # of iterations =  5.0

     negative rho (up, down):  1.480E-08 0.000E+00

     total cpu time spent up to now is     2872.6 secs

     total energy              =    -140.95193760 Ry
     Harris-Foulkes estimate   =    -140.95193947 Ry
     estimated scf accuracy    <       0.00000967 Ry

     iteration # 10     ecut=    80.00 Ry     beta= 0.40
     Davidson diagonalization with overlap
     ethr =  7.90E-09,  avg # of iterations =  3.0

     total cpu time spent up to now is     2897.9 secs

     total energy              =    -140.95193749 Ry
     Harris-Foulkes estimate   =    -140.95193856 Ry
     estimated scf accuracy    <       0.00000793 Ry

     iteration # 11     ecut=    80.00 Ry     beta= 0.40
     Davidson diagonalization with overlap
     ethr =  7.90E-09,  avg # of iterations =  1.0

     total cpu time spent up to now is     2923.1 secs

     total energy              =    -140.95193755 Ry
     Harris-Foulkes estimate   =    -140.95193798 Ry
     estimated scf accuracy    <       0.00000247 Ry

     iteration # 12     ecut=    80.00 Ry     beta= 0.40
     Davidson diagonalization with overlap
     ethr =  2.66E-09,  avg # of iterations =  4.0

     total cpu time spent up to now is     2951.4 secs

     total energy              =    -140.95193754 Ry
     Harris-Foulkes estimate   =    -140.95193792 Ry
     estimated scf accuracy    <       0.00000148 Ry

     iteration # 13     ecut=    80.00 Ry     beta= 0.40
     Davidson diagonalization with overlap
     ethr =  1.59E-09,  avg # of iterations =  4.0

     total cpu time spent up to now is     2979.8 secs

     total energy              =    -140.95193751 Ry
     Harris-Foulkes estimate   =    -140.95193791 Ry
     estimated scf accuracy    <       0.00000342 Ry

     iteration # 14     ecut=    80.00 Ry     beta= 0.40
     Davidson diagonalization with overlap
     ethr =  1.59E-09,  avg # of iterations =  3.0

     total cpu time spent up to now is     3004.9 secs

     End of self-consistent calculation

          k = 0.0000 0.0000 0.0000 (448403 PWs)   bands (ev):

    -9.9646  -9.4614  -9.4613  -9.4565  -9.4052  -9.4051  -9.1258  -8.4189
    -8.4034  -8.4029  -8.3511  -8.3509  -8.3261  -8.1934  -8.1930  -7.5793
    -6.9366  -6.9365  -6.8297  -6.4760  -6.4755  -6.4251  -6.3902  -6.3898
    -5.5679  -4.8090  -4.7917  -4.7916  -4.7297  -4.7295  -4.4567  -4.4513
    -4.4489  -4.4489  -4.1759  -4.1756  -3.9823  -3.4775  -3.4774  -3.4721
    -3.4438  -3.4438  -3.4230  -3.3635  -3.2519  -3.2519  -3.2120  -2.9753
    -2.9301  -2.9299  -2.8856  -2.4776  -2.4773  -2.4580  -2.4389  -2.4387

     the Fermi energy is    -3.0874 ev

!    total energy              =    -140.95193756 Ry
     Harris-Foulkes estimate   =    -140.95193766 Ry
     estimated scf accuracy    <       0.00000014 Ry

     The total energy is the sum of the following terms:

     one-electron contribution =    -504.03230350 Ry
     hartree contribution      =     260.74408867 Ry
     xc contribution           =     -61.30900879 Ry
     ewald contribution        =     163.71773797 Ry
     smearing contrib. (-TS)   =      -0.07245190 Ry

     convergence has been achieved in  14 iterations

     Forces acting on atoms (cartesian axes, Ry/au):

     atom    1 type  1   force =    -0.00012462    0.01543054    0.00000000
     atom    2 type  1   force =    -0.01247956    0.00892902    0.00000000
     atom    3 type  1   force =     0.01331922   -0.00773614    0.00000000
     atom    4 type  1   force =    -0.00576076   -0.00027495    0.00000000
     atom    5 type  1   force =     0.00146000   -0.01534719    0.00000000
     atom    6 type  1   force =    -0.00315658   -0.00483386    0.00000000
     atom    7 type  1   force =    -0.00188593   -0.00113554    0.00000000
     atom    8 type  1   force =     0.00296602   -0.00162405    0.00000000
     atom    9 type  1   force =    -0.00153100    0.00086683    0.00000000
     atom   10 type  1   force =    -0.01340115   -0.00771184    0.00000000
     atom   11 type  1   force =    -0.01408555    0.00621476    0.00000000
     atom   12 type  1   force =     0.00011984    0.00334992    0.00000000
     atom   13 type  1   force =    -0.00166588   -0.01532543    0.00000000
     atom   14 type  1   force =    -0.00254421   -0.00156965    0.00000000
     atom   15 type  1   force =    -0.00014654   -0.00169556    0.00000000
     atom   16 type  1   force =     0.00008681    0.00290691    0.00000000
     atom   17 type  1   force =     0.00130569    0.00076063    0.00000000
     atom   18 type  1   force =     0.00276916    0.00519718    0.00000000
     atom   19 type  1   force =     0.00007413    0.00238542    0.00000000
     atom   20 type  1   force =     0.00582033   -0.00016917    0.00000000
     atom   21 type  1   force =    -0.00412570   -0.00245247    0.00000000
     atom   22 type  1   force =     0.00260846   -0.00135986    0.00000000
     atom   23 type  1   force =     0.00210072   -0.00113146    0.00000000
     atom   24 type  1   force =    -0.00270312   -0.00163652    0.00000000
     atom   25 type  1   force =     0.01248480    0.00921528    0.00000000
     atom   26 type  1   force =    -0.00283735    0.00504534    0.00000000
     atom   27 type  1   force =     0.01415544    0.00627389    0.00000000
     atom   28 type  1   force =     0.00000819    0.00000320    0.00000000
     atom   29 type  1   force =     0.00414532   -0.00231983    0.00000000
     atom   30 type  1   force =     0.00297078   -0.00501966    0.00000000
     atom   31 type  1   force =     0.00005306    0.00476426    0.00000000

     Total force =     0.049970     Total SCF correction =     0.000308


     Computing stress (Cartesian axis) and pressure

          total   stress  (Ry/bohr**3)                   (kbar)     P=   -0.77
  -0.00000785   0.00000001   0.00000000         -1.16      0.00      0.00
   0.00000001  -0.00000787   0.00000000          0.00     -1.16      0.00
   0.00000000   0.00000000  -0.00000000          0.00      0.00     -0.00


     number of scf cycles    =   7
     number of bfgs steps    =   6

     enthalpy old            =    -140.9466423900 Ry
     enthalpy new            =    -140.9519375599 Ry

     CASE: enthalpy_new < enthalpy_old

     new trust radius        =       0.1722622540 bohr
     new conv_thr            =       0.0000010000 Ry

     new unit-cell volume =  36764.58043 a.u.^3 (  5447.94867 Ang^3 )
     density =      0.28329 g/cm^3

CELL_PARAMETERS (alat= 33.68096681)
   0.995065762  -0.000006694   0.000000000
  -0.497538678   0.861750520   0.000000000
   0.000000000   0.000000000   1.122132950

[...]
     Diagonalizing with lowered threshold

     Davidson diagonalization with overlap
     ethr =  8.25E-09,  avg # of iterations =  8.0

     negative rho (up, down):  1.782E-07 0.000E+00

     total cpu time spent up to now is   100450.9 secs

     total energy              =    -141.18724866 Ry
     Harris-Foulkes estimate   =    -141.17921938 Ry
     estimated scf accuracy    <       0.00001162 Ry

     iteration #  2     ecut=    80.00 Ry     beta= 0.40
     Davidson diagonalization with overlap
     ethr =  1.25E-08,  avg # of iterations =  9.0

     negative rho (up, down):  1.548E-07 0.000E+00

     total cpu time spent up to now is   100489.2 secs

     total energy              =    -141.18724479 Ry
     Harris-Foulkes estimate   =    -141.18725811 Ry
     estimated scf accuracy    <       0.00007626 Ry

     iteration #  3     ecut=    80.00 Ry     beta= 0.40
     Davidson diagonalization with overlap
     ethr =  1.25E-08,  avg # of iterations =  9.0

     negative rho (up, down):  9.489E-08 0.000E+00

     total cpu time spent up to now is   100525.1 secs

     total energy              =    -141.18725178 Ry
     Harris-Foulkes estimate   =    -141.18725285 Ry
     estimated scf accuracy    <       0.00000622 Ry

     iteration #  4     ecut=    80.00 Ry     beta= 0.40
     Davidson diagonalization with overlap
     ethr =  6.69E-09,  avg # of iterations =  6.0

     negative rho (up, down):  5.643E-08 0.000E+00

     total cpu time spent up to now is   100552.5 secs

     total energy              =    -141.18725218 Ry
     Harris-Foulkes estimate   =    -141.18725238 Ry
     estimated scf accuracy    <       0.00000071 Ry

     iteration #  5     ecut=    80.00 Ry     beta= 0.40
     Davidson diagonalization with overlap
     ethr =  7.67E-10,  avg # of iterations =  8.0

     negative rho (up, down):  2.882E-08 0.000E+00

     total cpu time spent up to now is   100587.2 secs

     total energy              =    -141.18725225 Ry
     Harris-Foulkes estimate   =    -141.18725241 Ry
     estimated scf accuracy    <       0.00000072 Ry

     iteration #  6     ecut=    80.00 Ry     beta= 0.40
     Davidson diagonalization with overlap
     ethr =  7.67E-10,  avg # of iterations =  8.0

     total cpu time spent up to now is   100615.6 secs

     End of self-consistent calculation

          k = 0.0000 0.0000 0.0000 (448403 PWs)   bands (ev):

   -10.5224  -9.8814  -9.6882  -9.6872  -9.5429  -9.5426  -9.4510  -8.5837
    -8.5008  -8.5002  -8.4165  -8.4161  -8.3888  -8.2459  -8.2149  -8.2140
    -7.0766  -7.0757  -6.9783  -6.3872  -6.3119  -6.3113  -6.3043  -6.2540
    -6.2537  -4.9944  -4.9937  -4.7859  -4.6798  -4.6011  -4.5996  -4.4133
    -4.4125  -4.3339  -4.3276  -4.3273  -4.2959  -4.2530  -3.7368  -3.5706
    -3.5699  -3.4839  -3.4837  -3.4236  -3.0987  -2.9814  -2.9795  -2.7386
    -2.7369  -2.7367  -2.4322  -2.4318  -2.4264  -2.3550  -2.3547  -2.3496

     the Fermi energy is    -2.9584 ev

!    total energy              =    -141.18725212 Ry
     Harris-Foulkes estimate   =    -141.18725238 Ry
     estimated scf accuracy    <       0.00000031 Ry

     The total energy is the sum of the following terms:

     one-electron contribution =    -544.94882136 Ry
     hartree contribution      =     281.13150286 Ry
     xc contribution           =     -61.83017675 Ry
     ewald contribution        =     184.48519008 Ry
     smearing contrib. (-TS)   =      -0.02494695 Ry

     convergence has been achieved in   6 iterations

     Forces acting on atoms (cartesian axes, Ry/au):

     atom    1 type  1   force =    -0.00004676   -0.00036911    0.00000000
     atom    2 type  1   force =     0.00184193    0.00078618    0.00000000
     atom    3 type  1   force =    -0.00035551    0.00018435    0.00000000
     atom    4 type  1   force =    -0.00070205   -0.00073721    0.00000000
     atom    5 type  1   force =     0.00171707    0.00121072    0.00000000
     atom    6 type  1   force =    -0.00098097   -0.00019329    0.00000000
     atom    7 type  1   force =    -0.00060883   -0.00037349    0.00000000
     atom    8 type  1   force =     0.00002986   -0.00003437    0.00000000
     atom    9 type  1   force =     0.00665661   -0.00393853    0.00000000
     atom   10 type  1   force =     0.00023423    0.00016239    0.00000000
     atom   11 type  1   force =     0.00029755   -0.00196615    0.00000000
     atom   12 type  1   force =     0.00005752   -0.00012764    0.00000000
     atom   13 type  1   force =    -0.00162408    0.00131609    0.00000000
     atom   14 type  1   force =    -0.00346434   -0.00203351    0.00000000
     atom   15 type  1   force =     0.00001689    0.00792176    0.00000000
     atom   16 type  1   force =     0.00012912    0.00412141    0.00000000
     atom   17 type  1   force =    -0.00685999   -0.00397933    0.00000000
     atom   18 type  1   force =    -0.00027169    0.00085673    0.00000000
     atom   19 type  1   force =    -0.00019203    0.00059740    0.00000000
     atom   20 type  1   force =     0.00049951   -0.00072098    0.00000000
     atom   21 type  1   force =     0.00093540    0.00049506    0.00000000
     atom   22 type  1   force =     0.00345398   -0.00196404    0.00000000
     atom   23 type  1   force =     0.00051022   -0.00036509    0.00000000
     atom   24 type  1   force =     0.00006719    0.00008991    0.00000000
     atom   25 type  1   force =    -0.00184473    0.00077280    0.00000000
     atom   26 type  1   force =     0.00043926    0.00102637    0.00000000
     atom   27 type  1   force =    -0.00020560   -0.00211146    0.00000000
     atom   28 type  1   force =    -0.00004456    0.00005036    0.00000000
     atom   29 type  1   force =    -0.00073418    0.00041816    0.00000000
     atom   30 type  1   force =     0.00095264   -0.00003285    0.00000000
     atom   31 type  1   force =     0.00009635   -0.00106264    0.00000000

     Total force =     0.016435     Total SCF correction =     0.000463


     Computing stress (Cartesian axis) and pressure

          total   stress  (Ry/bohr**3)                   (kbar)     P=   -0.05
  -0.00000051   0.00000006   0.00000000         -0.07      0.01      0.00
   0.00000006  -0.00000045   0.00000000          0.01     -0.07      0.00
   0.00000000   0.00000000   0.00000001          0.00      0.00      0.00


     number of scf cycles    = 299
     number of bfgs steps    =  29

     enthalpy old            =    -141.1876676827 Ry
     enthalpy new            =    -141.1872521170 Ry

     CASE: enthalpy_new > enthalpy_old

     new trust radius        =       0.0001886196 bohr
     new conv_thr            =       0.0000004815 Ry

     new unit-cell volume =  33902.23919 a.u.^3 (  5023.79347 Ang^3 )
     density =      0.30721 g/cm^3

CELL_PARAMETERS (alat= 33.68096681)
   0.955455242   0.000109212   0.000000000
  -0.477633051   0.827544625   0.000000000
   0.000000000   0.000000000   1.122132950

ATOMIC_POSITIONS (angstrom)
Al       0.000014580   3.426083717   0.000000000
Al       1.786588089   1.660306692   0.000000000
Al      -1.290978904   5.662706271   0.000000000
Al      -3.934894243   9.650256447   0.000000000
Al      -1.924647926   8.093348307   0.000000000
Al      -6.381933983  13.890670794   0.000000000
Al      -4.551498222  12.120727822   0.000000000
Al       4.234781627   2.472784665   0.000000000
Al       6.407771694   1.217550409   0.000000000
Al       1.291149835   5.662481013   0.000000000
Al       3.713367607   4.998783756   0.000000000
Al       0.002892003   9.807635861   0.000000000
Al       1.929338514   8.091624791   0.000000000
Al      -2.310597171  13.415705772   0.000000000
Al       0.001343933  12.316466700   0.000000000
Al       8.514226285   2.670867629   0.000000000
Al      10.622453766   1.218177566   0.000000000
Al       6.067323439   5.959882204   0.000000000
Al       8.515581223   5.259488448   0.000000000
Al       3.936954243   9.652129784   0.000000000
Al       6.290523436   8.549504114   0.000000000
Al       2.313500143  13.415506664   0.000000000
Al       4.555457572  12.121845583   0.000000000
Al      12.795315678   2.472725606   0.000000000
Al      15.243790270   1.661017141   0.000000000
Al      10.962422383   5.960800379   0.000000000
Al      13.316168681   4.999356078   0.000000000
Al       8.514531370   9.834646554   0.000000000
Al      10.739183893   8.551167168   0.000000000
Al       6.385508043  13.891310177   0.000000000
Al       8.516496981  12.403388514   0.000000000



     Writing output data file 4al_planar_2x2_vcr.save/
     Check: negative starting charge=   -0.000153
     NEW-OLD atomic charge density approx. for the potential
     Check: negative starting charge=   -0.000153

     negative rho (up, down):  8.702E-08 0.000E+00
     extrapolated charge   93.00053, renormalised to   93.00000

     total cpu time spent up to now is   100714.2 secs

     Self-consistent Calculation

     iteration #  1     ecut=    80.00 Ry     beta= 0.40
     Davidson diagonalization with overlap
     ethr =  1.00E-06,  avg # of iterations =  2.0

     Threshold (ethr) on eigenvalues was too large:
     Diagonalizing with lowered threshold

     Davidson diagonalization with overlap
     ethr =  2.54E-08,  avg # of iterations =  2.0

     negative rho (up, down):  4.194E-08 0.000E+00

     total cpu time spent up to now is   100765.3 secs

     total energy              =    -141.18716637 Ry
     Harris-Foulkes estimate   =    -141.18430664 Ry
     estimated scf accuracy    <       0.00002676 Ry

     iteration #  2     ecut=    80.00 Ry     beta= 0.40
     Davidson diagonalization with overlap
     ethr =  2.88E-08,  avg # of iterations =  8.0

     negative rho (up, down):  3.705E-08 0.000E+00

     total cpu time spent up to now is   100805.2 secs

     total energy              =    -141.18715049 Ry
     Harris-Foulkes estimate   =    -141.18720951 Ry
     estimated scf accuracy    <       0.00039549 Ry

     iteration #  3     ecut=    80.00 Ry     beta= 0.40
     Davidson diagonalization with overlap
     ethr =  2.88E-08,  avg # of iterations =  7.0

     negative rho (up, down):  2.943E-08 0.000E+00

     total cpu time spent up to now is   100843.9 secs

     total energy              =    -141.18717967 Ry
     Harris-Foulkes estimate   =    -141.18718009 Ry
     estimated scf accuracy    <       0.00000228 Ry

     iteration #  4     ecut=    80.00 Ry     beta= 0.40
     Davidson diagonalization with overlap
     ethr =  2.46E-09,  avg # of iterations =  8.0

     negative rho (up, down):  2.166E-08 0.000E+00

     total cpu time spent up to now is   100874.9 secs

     total energy              =    -141.18717991 Ry
     Harris-Foulkes estimate   =    -141.18718002 Ry
     estimated scf accuracy    <       0.00000062 Ry

     iteration #  5     ecut=    80.00 Ry     beta= 0.40
     Davidson diagonalization with overlap
     ethr =  6.65E-10,  avg # of iterations =  8.0

     total cpu time spent up to now is   100902.7 secs

     End of self-consistent calculation

          k = 0.0000 0.0000 0.0000 (448403 PWs)   bands (ev):

   -10.5223  -9.8813  -9.6882  -9.6872  -9.5428  -9.5424  -9.4509  -8.5832
    -8.5005  -8.4997  -8.4170  -8.4166  -8.3886  -8.2460  -8.2149  -8.2140
    -7.0767  -7.0757  -6.9780  -6.3878  -6.3116  -6.3111  -6.3040  -6.2541
    -6.2539  -4.9943  -4.9936  -4.7857  -4.6806  -4.6012  -4.5996  -4.4130
    -4.4122  -4.3344  -4.3272  -4.3269  -4.2951  -4.2530  -3.7367  -3.5706
    -3.5698  -3.4838  -3.4836  -3.4236  -3.0986  -2.9817  -2.9799  -2.7387
    -2.7369  -2.7368  -2.4318  -2.4315  -2.4262  -2.3555  -2.3552  -2.3495

     the Fermi energy is    -2.9585 ev

!    total energy              =    -141.18717987 Ry
     Harris-Foulkes estimate   =    -141.18717998 Ry
     estimated scf accuracy    <       0.00000014 Ry

     The total energy is the sum of the following terms:

     one-electron contribution =    -544.94702660 Ry
     hartree contribution      =     281.13087911 Ry
     xc contribution           =     -61.83032302 Ry
     ewald contribution        =     184.48421724 Ry
     smearing contrib. (-TS)   =      -0.02492660 Ry

     convergence has been achieved in   5 iterations

     Forces acting on atoms (cartesian axes, Ry/au):

     atom    1 type  1   force =    -0.00004680   -0.00038072    0.00000000
     atom    2 type  1   force =     0.00189542    0.00080936    0.00000000
     atom    3 type  1   force =    -0.00036337    0.00018788    0.00000000
     atom    4 type  1   force =    -0.00070766   -0.00075094    0.00000000
     atom    5 type  1   force =     0.00176894    0.00124576    0.00000000
     atom    6 type  1   force =    -0.00099676   -0.00019223    0.00000000
     atom    7 type  1   force =    -0.00053967   -0.00032773    0.00000000
     atom    8 type  1   force =    -0.00022672    0.00011486    0.00000000
     atom    9 type  1   force =     0.00687526   -0.00406631    0.00000000
     atom   10 type  1   force =     0.00023800    0.00016249    0.00000000
     atom   11 type  1   force =     0.00031457   -0.00202656    0.00000000
     atom   12 type  1   force =     0.00005783   -0.00044165    0.00000000
     atom   13 type  1   force =    -0.00166590    0.00136140    0.00000000
     atom   14 type  1   force =    -0.00345266   -0.00202649    0.00000000
     atom   15 type  1   force =     0.00001920    0.00819370    0.00000000
     atom   16 type  1   force =     0.00013768    0.00411628    0.00000000
     atom   17 type  1   force =    -0.00709376   -0.00411467    0.00000000
     atom   18 type  1   force =    -0.00027901    0.00087148    0.00000000
     atom   19 type  1   force =    -0.00019965    0.00050353    0.00000000
     atom   20 type  1   force =     0.00050328   -0.00073147    0.00000000
     atom   21 type  1   force =     0.00094097    0.00049389    0.00000000
     atom   22 type  1   force =     0.00344295   -0.00195433    0.00000000
     atom   23 type  1   force =     0.00042703   -0.00033031    0.00000000
     atom   24 type  1   force =     0.00033997    0.00024496    0.00000000
     atom   25 type  1   force =    -0.00190659    0.00078803    0.00000000
     atom   26 type  1   force =     0.00045431    0.00104006    0.00000000
     atom   27 type  1   force =    -0.00021567   -0.00217498    0.00000000
     atom   28 type  1   force =    -0.00005996    0.00005449    0.00000000
     atom   29 type  1   force =    -0.00072906    0.00041355    0.00000000
     atom   30 type  1   force =     0.00097039   -0.00001498    0.00000000
     atom   31 type  1   force =     0.00009743   -0.00106835    0.00000000

     Total force =     0.016865     Total SCF correction =     0.000282


     Computing stress (Cartesian axis) and pressure

          total   stress  (Ry/bohr**3)                   (kbar)     P=   -0.05
  -0.00000050   0.00000006   0.00000000         -0.07      0.01      0.00
   0.00000006  -0.00000044   0.00000000          0.01     -0.06      0.00
   0.00000000   0.00000000   0.00000001          0.00      0.00      0.00


     number of scf cycles    = 300
     number of bfgs steps    =  29

     enthalpy old            =    -141.1876676827 Ry
     enthalpy new            =    -141.1871798726 Ry

     CASE: enthalpy_new > enthalpy_old

     new trust radius        =       0.0000012335 bohr

     trust_radius < trust_radius_min

     resetting bfgs history

     new conv_thr            =       0.0000004815 Ry

     new unit-cell volume =  33901.50213 a.u.^3 (  5023.68425 Ang^3 )
     density =      0.30722 g/cm^3

CELL_PARAMETERS (alat= 33.68096681)
   0.955444504   0.000109933   0.000000000
  -0.477627057   0.827535573   0.000000000
   0.000000000   0.000000000   1.122132950

ATOMIC_POSITIONS (angstrom)
Al      -0.000003700   3.425762515   0.000000000
Al       1.787527544   1.660638753   0.000000000
Al      -1.291226348   5.662785944   0.000000000
Al      -3.935173334   9.649627826   0.000000000
Al      -1.923761497   8.093947367   0.000000000
Al      -6.382443078  13.890509791   0.000000000
Al      -4.551751084  12.120431695   0.000000000
Al       4.234582859   2.472870023   0.000000000
Al       6.411324750   1.215400274   0.000000000
Al       1.291335763   5.662554408   0.000000000
Al       3.713558109   4.997717526   0.000000000
Al       0.002891982   9.807264487   0.000000000
Al       1.928539083   8.092254142   0.000000000
Al      -2.312247891  13.414575310   0.000000000
Al       0.001362844  12.320643896   0.000000000
Al       8.514209899   2.672852777   0.000000000
Al      10.618609506   1.216005508   0.000000000
Al       6.066965815   5.960311029   0.000000000
Al       8.515439017   5.259734267   0.000000000
Al       3.937138744   9.651560351   0.000000000
Al       6.290837740   8.549607647   0.000000000
Al       2.315143075  13.414422501   0.000000000
Al       4.555659958  12.121492347   0.000000000
Al      12.795387704   2.472838973   0.000000000
Al      15.242643910   1.661344217   0.000000000
Al      10.962634551   5.961300416   0.000000000
Al      13.315862816   4.998243257   0.000000000
Al       8.514397412   9.834587267   0.000000000
Al      10.738827381   8.551231417   0.000000000
Al       6.386045811  13.891263431   0.000000000
Al       8.516458807  12.402843159   0.000000000



     Writing output data file 4al_planar_2x2_vcr.save/
     Check: negative starting charge=   -0.000153
     NEW-OLD atomic charge density approx. for the potential
     Check: negative starting charge=   -0.000153

     negative rho (up, down):  5.354E-07 0.000E+00
     extrapolated charge   92.99798, renormalised to   93.00000

     Writing output data file 4al_planar_2x2_vcr.save/
 
     init_run     :     31.13s CPU     42.69s WALL (       1 calls)
     electrons    :  44421.89s CPU  71365.55s WALL (     300 calls)
     update_pot   :   6771.39s CPU   7987.11s WALL (     300 calls)
     forces       :   5185.70s CPU   6149.39s WALL (     300 calls)
     stress       :  13016.13s CPU  15210.15s WALL (     300 calls)

     Called by init_run:
     wfcinit      :     10.65s CPU     17.77s WALL (       1 calls)
     potinit      :      7.58s CPU      9.69s WALL (       1 calls)
     hinit0       :     10.72s CPU     12.63s WALL (       1 calls)

     Called by electrons:
     c_bands      :  38412.69s CPU  60411.48s WALL (    2075 calls)
     sum_band     :   4002.14s CPU   7655.52s WALL (    2075 calls)
     v_of_rho     :   1878.75s CPU   3009.55s WALL (    2106 calls)
     mix_rho      :    264.14s CPU    492.61s WALL (    2075 calls)

     Called by c_bands:
     init_us_2    :    456.04s CPU    666.09s WALL (    4151 calls)
     cegterg      :  32320.72s CPU  53358.07s WALL (    2075 calls)

     Called by sum_band:

     Called by *egterg:
     h_psi        :  26536.83s CPU  46609.65s WALL (   15264 calls)
     g_psi        :    139.56s CPU    161.77s WALL (   13188 calls)
     cdiaghg      :    141.15s CPU    166.16s WALL (   14694 calls)

     Called by h_psi:
     h_psi:pot    :  26490.72s CPU  46445.13s WALL (   15264 calls)
     h_psi:calbec :   5432.67s CPU   6620.56s WALL (   15264 calls)
     vloc_psi     :  15659.72s CPU  33611.10s WALL (   15264 calls)
     add_vuspsi   :   5398.13s CPU   6213.31s WALL (   15264 calls)

     General routines
     calbec       :   6631.41s CPU   7992.91s WALL (   16764 calls)
     fft          :   1514.20s CPU   2714.78s WALL (   29132 calls)
     ffts         :    109.78s CPU    189.03s WALL (    2075 calls)
     fftw         :  17067.91s CPU  38166.07s WALL (  778602 calls)
 
     Parallel routines
     fft_scatt_xy :   2591.53s CPU   5775.86s WALL (  809809 calls)
     fft_scatt_yz :   7066.85s CPU  14114.08s WALL (  809809 calls)
 
     PWSCF        :    19h18m CPU        1d    4h 3m WALL

 
   This run was terminated on:  23:19:23  26Nov2020            

=------------------------------------------------------------------------------=
   JOB DONE.
=------------------------------------------------------------------------------=
