
     Program PWSCF v.6.3MaX starts on 25Nov2020 at 11:27:22 

     This program is part of the open-source Quantum ESPRESSO suite
     for quantum simulation of materials; please cite
         "P. Giannozzi et al., J. Phys.:Condens. Matter 21 395502 (2009);
         "P. Giannozzi et al., J. Phys.:Condens. Matter 29 465901 (2017);
          URL http://www.quantum-espresso.org", 
     in publications or presentations arising from this work. More details at
     http://www.quantum-espresso.org/quote

     Parallel version (MPI), running on     8 processors

     MPI processes distributed on     3 nodes
     R & G space division:  proc/nbgrp/npool/nimage =       8
     Waiting for input...
     Reading input from standard input

     Current dimensions of program PWSCF are:
     Max number of different atomic species (ntypx) = 10
     Max number of k-points (npk) =  40000
     Max angular momentum in pseudopotentials (lmaxx) =  3

     Subspace diagonalization in iterative solution of the eigenvalue problem:
     a serial algorithm will be used

 
     Parallelization info
     --------------------
     sticks:   dense  smooth     PW     G-vecs:    dense   smooth      PW
     Min         778     778    194               112122   112122   13992
     Max         779     779    195               112130   112130   14001
     Sum        6229    6229   1555               896999   896999  111965
 


     bravais-lattice index     =            4
     lattice parameter (alat)  =      16.8405  a.u.
     unit-cell volume          =    9282.5779 (a.u.)^3
     number of atoms/cell      =            7
     number of atomic types    =            1
     number of electrons       =        21.00
     number of Kohn-Sham states=           15
     kinetic-energy cutoff     =      80.0000  Ry
     charge density cutoff     =     320.0000  Ry
     convergence threshold     =      1.0E-06
     mixing beta               =       0.4000
     number of iterations used =            8  plain     mixing
     Exchange-correlation      = PBE ( 1  4  3  4 0 0)
     nstep                     =          300


     celldm(1)=  16.840483  celldm(2)=   0.000000  celldm(3)=   2.244266
     celldm(4)=   0.000000  celldm(5)=   0.000000  celldm(6)=   0.000000

     crystal axes: (cart. coord. in units of alat)
               a(1) = (   1.000000   0.000000   0.000000 )  
               a(2) = (  -0.500000   0.866025   0.000000 )  
               a(3) = (   0.000000   0.000000   2.244266 )  

     reciprocal axes: (cart. coord. in units 2 pi/alat)
               b(1) = (  1.000000  0.577350  0.000000 )  
               b(2) = (  0.000000  1.154701  0.000000 )  
               b(3) = (  0.000000  0.000000  0.445580 )  


     PseudoPot. # 1 for Al read from file:
     ./Al.upf
     MD5 check sum: 4974d48a734c9d7d1eb6780a1419d19d
     Pseudo is Norm-conserving + core correction, Zval =  3.0
     Generated using ONCVPSP code by D. R. Hamann
     Using radial grid of 1876 points,  6 beta functions with: 
                l(1) =   0
                l(2) =   0
                l(3) =   1
                l(4) =   1
                l(5) =   2
                l(6) =   2

     atomic species   valence    mass     pseudopotential
        Al             3.00    29.98200     Al( 1.00)

      4 Sym. Ops. (no inversion) found



   Cartesian axes

     site n.     atom                  positions (alat units)
         1           Al  tau(   1) = (   0.0000001   0.2886786   0.0000000  )
         2           Al  tau(   2) = (   0.2500030   0.1443392   0.0000000  )
         3           Al  tau(   3) = (   0.5000023   0.2886806   0.0000000  )
         4           Al  tau(   4) = (   0.7500053   0.1443413   0.0000000  )
         5           Al  tau(   5) = (  -0.2499995   0.7216943   0.0000000  )
         6           Al  tau(   6) = (   0.0000036   0.5773550   0.0000000  )
         7           Al  tau(   7) = (   0.2500029   0.7216963   0.0000000  )

     number of k points=     1  Methfessel-Paxton smearing, width (Ry)=  0.0500
                       cart. coord. in units 2pi/alat
        k(    1) = (   0.0000000   0.0000000   0.0000000), wk =   2.0000000

     Dense  grid:   896999 G-vectors     FFT dimensions: (  96,  96, 216)

     Estimated max dynamical RAM per process >     127.42 MB

     Estimated total dynamical RAM >    1019.39 MB

     Initial potential from superposition of free atoms

     starting charge   20.98287, renormalised to   21.00000

     negative rho (up, down):  2.280E-05 0.000E+00
     Starting wfcs are   28 randomized atomic wfcs

     total cpu time spent up to now is        5.7 secs

     Self-consistent Calculation

     iteration #  1     ecut=    80.00 Ry     beta= 0.40
     Davidson diagonalization with overlap
     ethr =  1.00E-02,  avg # of iterations =  2.0

     total cpu time spent up to now is        7.7 secs

     total energy              =     -31.66583362 Ry
     Harris-Foulkes estimate   =     -31.75255838 Ry
     estimated scf accuracy    <       0.28997760 Ry

     iteration #  2     ecut=    80.00 Ry     beta= 0.40
     Davidson diagonalization with overlap
     ethr =  1.38E-03,  avg # of iterations =  2.0

     total cpu time spent up to now is        8.6 secs

     total energy              =     -31.66526907 Ry
     Harris-Foulkes estimate   =     -31.68738886 Ry
     estimated scf accuracy    <       0.06455836 Ry

     iteration #  3     ecut=    80.00 Ry     beta= 0.40
     Davidson diagonalization with overlap
     ethr =  3.07E-04,  avg # of iterations =  2.0

     total cpu time spent up to now is        9.7 secs

     total energy              =     -31.67536733 Ry
     Harris-Foulkes estimate   =     -31.67790435 Ry
     estimated scf accuracy    <       0.00992061 Ry

     iteration #  4     ecut=    80.00 Ry     beta= 0.40
     Davidson diagonalization with overlap
     ethr =  4.72E-05,  avg # of iterations =  4.0

     total cpu time spent up to now is       10.9 secs

     total energy              =     -31.67547200 Ry
     Harris-Foulkes estimate   =     -31.67675351 Ry
     estimated scf accuracy    <       0.00284168 Ry

     iteration #  5     ecut=    80.00 Ry     beta= 0.40
     Davidson diagonalization with overlap
     ethr =  1.35E-05,  avg # of iterations =  9.0

     total cpu time spent up to now is       12.4 secs

     total energy              =     -31.67644049 Ry
     Harris-Foulkes estimate   =     -31.67766133 Ry
     estimated scf accuracy    <       0.00518271 Ry

     iteration #  6     ecut=    80.00 Ry     beta= 0.40
     Davidson diagonalization with overlap
     ethr =  1.35E-05,  avg # of iterations =  1.0

     total cpu time spent up to now is       13.4 secs

     total energy              =     -31.67632369 Ry
     Harris-Foulkes estimate   =     -31.67677754 Ry
     estimated scf accuracy    <       0.00102822 Ry

     iteration #  7     ecut=    80.00 Ry     beta= 0.40
     Davidson diagonalization with overlap
     ethr =  4.90E-06,  avg # of iterations =  3.0

     total cpu time spent up to now is       14.5 secs

     total energy              =     -31.67662408 Ry
     Harris-Foulkes estimate   =     -31.67666782 Ry
     estimated scf accuracy    <       0.00014124 Ry

     iteration #  8     ecut=    80.00 Ry     beta= 0.40
     Davidson diagonalization with overlap
     ethr =  6.73E-07,  avg # of iterations =  2.0

     total cpu time spent up to now is       15.7 secs

     total energy              =     -31.67664683 Ry
     Harris-Foulkes estimate   =     -31.67665272 Ry
     estimated scf accuracy    <       0.00002169 Ry

     iteration #  9     ecut=    80.00 Ry     beta= 0.40
     Davidson diagonalization with overlap
     ethr =  1.03E-07,  avg # of iterations =  3.0

     total cpu time spent up to now is       16.7 secs

     End of self-consistent calculation

          k = 0.0000 0.0000 0.0000 (111965 PWs)   bands (ev):

    -9.6463  -8.0779  -8.0777  -7.5211  -6.5569  -6.5566  -4.1832  -3.7999
    -3.2639  -2.8087  -2.8085  -2.2412  -2.2411  -1.7277  -0.8767

     the Fermi energy is    -2.6614 ev

!    total energy              =     -31.67665054 Ry
     Harris-Foulkes estimate   =     -31.67665074 Ry
     estimated scf accuracy    <       0.00000098 Ry

     The total energy is the sum of the following terms:

     one-electron contribution =    -103.79139075 Ry
     hartree contribution      =      53.98842600 Ry
     xc contribution           =     -13.76102298 Ry
     ewald contribution        =      31.90171854 Ry
     smearing contrib. (-TS)   =      -0.01438134 Ry

     convergence has been achieved in   9 iterations

     Forces acting on atoms (cartesian axes, Ry/au):

     atom    1 type  1   force =     0.00000000    0.00001303    0.00000000
     atom    2 type  1   force =    -0.00239964    0.00140907    0.00000000
     atom    3 type  1   force =     0.00000000    0.01090411    0.00000000
     atom    4 type  1   force =     0.00239964    0.00140907    0.00000000
     atom    5 type  1   force =    -0.00949237   -0.00545841    0.00000000
     atom    6 type  1   force =     0.00000000   -0.00281845    0.00000000
     atom    7 type  1   force =     0.00949237   -0.00545841    0.00000000

     Total force =     0.019548     Total SCF correction =     0.000570


     Computing stress (Cartesian axis) and pressure

          total   stress  (Ry/bohr**3)                   (kbar)     P=   -1.45
  -0.00001477   0.00000000   0.00000000         -2.17      0.00      0.00
   0.00000000  -0.00001473   0.00000000          0.00     -2.17      0.00
   0.00000000  -0.00000000  -0.00000008          0.00     -0.00     -0.01


     BFGS Geometry Optimization

     number of scf cycles    =   1
     number of bfgs steps    =   0

     enthalpy new            =     -31.6766505404 Ry

     new trust radius        =       0.0109498585 bohr
     new conv_thr            =       0.0000010000 Ry

     new unit-cell volume =   9275.73422 a.u.^3 (  1374.52198 Ang^3 )
     density =      0.25355 g/cm^3

CELL_PARAMETERS (alat= 16.84048341)
   0.999630779   0.000000000   0.000000000
  -0.499815390   0.865706552   0.000000000
   0.000000000   0.000000000   2.244265901

ATOMIC_POSITIONS (angstrom)
Al       0.000000586   2.571647589   0.000000000
Al       2.225834776   1.286565214   0.000000000
Al       4.454175030   2.577426972   0.000000000
Al       6.682549129   1.286583403   0.000000000
Al      -2.232093937   6.426195649   0.000000000
Al       0.000032087   5.141771282   0.000000000
Al       2.232124266   6.426213838   0.000000000



     Writing output data file 8al_planar_2x2_vcr.save/
     NEW-OLD atomic charge density approx. for the potential

     negative rho (up, down):  1.043E-07 0.000E+00
     extrapolated charge   20.98452, renormalised to   21.00000

     total cpu time spent up to now is       33.8 secs

     Self-consistent Calculation

     iteration #  1     ecut=    80.00 Ry     beta= 0.40
     Davidson diagonalization with overlap
     ethr =  1.00E-06,  avg # of iterations =  4.0

     negative rho (up, down):  5.170E-08 0.000E+00

     total cpu time spent up to now is       35.0 secs

     total energy              =     -31.67707990 Ry
     Harris-Foulkes estimate   =     -31.74694326 Ry
     estimated scf accuracy    <       0.00004602 Ry

     iteration #  2     ecut=    80.00 Ry     beta= 0.40
     Davidson diagonalization with overlap
     ethr =  2.19E-07,  avg # of iterations =  5.0

     negative rho (up, down):  3.938E-08 0.000E+00

     total cpu time spent up to now is       36.2 secs

     total energy              =     -31.67711389 Ry
     Harris-Foulkes estimate   =     -31.67713174 Ry
     estimated scf accuracy    <       0.00007422 Ry

     iteration #  3     ecut=    80.00 Ry     beta= 0.40
     Davidson diagonalization with overlap
     ethr =  2.19E-07,  avg # of iterations =  1.0

     negative rho (up, down):  3.148E-08 0.000E+00

     total cpu time spent up to now is       37.1 secs

     total energy              =     -31.67711811 Ry
     Harris-Foulkes estimate   =     -31.67711942 Ry
     estimated scf accuracy    <       0.00001053 Ry

     iteration #  4     ecut=    80.00 Ry     beta= 0.40
     Davidson diagonalization with overlap
     ethr =  5.02E-08,  avg # of iterations =  4.0

     total cpu time spent up to now is       38.1 secs

     total energy              =     -31.67711662 Ry
     Harris-Foulkes estimate   =     -31.67711863 Ry
     estimated scf accuracy    <       0.00000582 Ry

     iteration #  5     ecut=    80.00 Ry     beta= 0.40
     Davidson diagonalization with overlap
     ethr =  2.77E-08,  avg # of iterations =  3.0

     total cpu time spent up to now is       39.1 secs

     total energy              =     -31.67711820 Ry
     Harris-Foulkes estimate   =     -31.67711826 Ry
     estimated scf accuracy    <       0.00000112 Ry

     iteration #  6     ecut=    80.00 Ry     beta= 0.40
     Davidson diagonalization with overlap
     ethr =  5.31E-09,  avg # of iterations =  5.0

     total cpu time spent up to now is       40.0 secs

     End of self-consistent calculation

          k = 0.0000 0.0000 0.0000 (111965 PWs)   bands (ev):

    -9.6449  -8.0726  -8.0726  -7.5187  -6.5583  -6.5582  -4.1962  -3.7985
    -3.2590  -2.8036  -2.8034  -2.2371  -2.2370  -1.7255  -0.8782

     the Fermi energy is    -2.6564 ev

!    total energy              =     -31.67711757 Ry
     Harris-Foulkes estimate   =     -31.67711835 Ry
     estimated scf accuracy    <       0.00000096 Ry

     The total energy is the sum of the following terms:

     one-electron contribution =    -103.83198408 Ry
     hartree contribution      =      54.01134126 Ry
     xc contribution           =     -13.76020892 Ry
     ewald contribution        =      31.91827649 Ry
     smearing contrib. (-TS)   =      -0.01454231 Ry

     convergence has been achieved in   6 iterations

     Forces acting on atoms (cartesian axes, Ry/au):

     atom    1 type  1   force =     0.00000000    0.00002294    0.00000000
     atom    2 type  1   force =    -0.00161880    0.00090926    0.00000000
     atom    3 type  1   force =     0.00000000    0.01025963    0.00000000
     atom    4 type  1   force =     0.00161880    0.00090926    0.00000000
     atom    5 type  1   force =    -0.00885653   -0.00511514    0.00000000
     atom    6 type  1   force =     0.00000000   -0.00187081    0.00000000
     atom    7 type  1   force =     0.00885653   -0.00511514    0.00000000

     Total force =     0.018024     Total SCF correction =     0.000661


     Computing stress (Cartesian axis) and pressure

          total   stress  (Ry/bohr**3)                   (kbar)     P=   -1.48
  -0.00001520   0.00000000   0.00000000         -2.24      0.00      0.00
   0.00000000  -0.00001517   0.00000000          0.00     -2.23      0.00
   0.00000000   0.00000000   0.00000015          0.00      0.00      0.02


     number of scf cycles    =   2
     number of bfgs steps    =   1

     enthalpy old            =     -31.6766505404 Ry
     enthalpy new            =     -31.6771175703 Ry

     CASE: enthalpy_new < enthalpy_old


     WARNING: bfgs curvature condition failed, Theta= 0.849
     new trust radius        =       0.0164187276 bohr
     new conv_thr            =       0.0000004670 Ry

     new unit-cell volume =   9264.84603 a.u.^3 (  1372.90852 Ang^3 )
     density =      0.25384 g/cm^3

CELL_PARAMETERS (alat= 16.84048341)
   0.999043233   0.000000000   0.000000000
  -0.499521616   0.865198887   0.000000000
   0.000000000   0.000000000   2.244265901

ATOMIC_POSITIONS (angstrom)
Al       0.000000585   2.570155351   0.000000000
Al       2.222941427   1.286720453   0.000000000
Al       4.451557028   2.584598846   0.000000000
Al       6.680206454   1.286738632   0.000000000
Al      -2.238302935   6.418091032   0.000000000
Al       0.000032068   5.136909886   0.000000000
Al       2.238333247   6.418109211   0.000000000



     Writing output data file 8al_planar_2x2_vcr.save/
     NEW-OLD atomic charge density approx. for the potential

     negative rho (up, down):  1.681E-07 0.000E+00
     extrapolated charge   20.97534, renormalised to   21.00000

     total cpu time spent up to now is       56.9 secs

     Self-consistent Calculation

     iteration #  1     ecut=    80.00 Ry     beta= 0.40
     Davidson diagonalization with overlap
     ethr =  1.00E-06,  avg # of iterations =  4.0

     negative rho (up, down):  8.499E-08 0.000E+00

     total cpu time spent up to now is       58.2 secs

     total energy              =     -31.67770129 Ry
     Harris-Foulkes estimate   =     -31.78907926 Ry
     estimated scf accuracy    <       0.00010904 Ry

     iteration #  2     ecut=    80.00 Ry     beta= 0.40
     Davidson diagonalization with overlap
     ethr =  5.19E-07,  avg # of iterations =  3.0

     negative rho (up, down):  6.732E-08 0.000E+00

     total cpu time spent up to now is       59.3 secs

     total energy              =     -31.67777236 Ry
     Harris-Foulkes estimate   =     -31.67783100 Ry
     estimated scf accuracy    <       0.00026219 Ry

     iteration #  3     ecut=    80.00 Ry     beta= 0.40
     Davidson diagonalization with overlap
     ethr =  5.19E-07,  avg # of iterations =  2.0

     negative rho (up, down):  5.921E-08 0.000E+00

     total cpu time spent up to now is       60.4 secs

     total energy              =     -31.67778834 Ry
     Harris-Foulkes estimate   =     -31.67779054 Ry
     estimated scf accuracy    <       0.00003325 Ry

     iteration #  4     ecut=    80.00 Ry     beta= 0.40
     Davidson diagonalization with overlap
     ethr =  1.58E-07,  avg # of iterations =  1.0

     total cpu time spent up to now is       61.3 secs

     total energy              =     -31.67778079 Ry
     Harris-Foulkes estimate   =     -31.67778888 Ry
     estimated scf accuracy    <       0.00002403 Ry

     iteration #  5     ecut=    80.00 Ry     beta= 0.40
     Davidson diagonalization with overlap
     ethr =  1.14E-07,  avg # of iterations =  2.0

     total cpu time spent up to now is       62.4 secs

     total energy              =     -31.67778549 Ry
     Harris-Foulkes estimate   =     -31.67778595 Ry
     estimated scf accuracy    <       0.00000291 Ry

     iteration #  6     ecut=    80.00 Ry     beta= 0.40
     Davidson diagonalization with overlap
     ethr =  1.38E-08,  avg # of iterations =  3.0

     total cpu time spent up to now is       63.4 secs

     total energy              =     -31.67778574 Ry
     Harris-Foulkes estimate   =     -31.67778582 Ry
     estimated scf accuracy    <       0.00000178 Ry

     iteration #  7     ecut=    80.00 Ry     beta= 0.40
     Davidson diagonalization with overlap
     ethr =  8.47E-09,  avg # of iterations =  1.0

     total cpu time spent up to now is       64.3 secs

     total energy              =     -31.67778512 Ry
     Harris-Foulkes estimate   =     -31.67778576 Ry
     estimated scf accuracy    <       0.00000160 Ry

     iteration #  8     ecut=    80.00 Ry     beta= 0.40
     Davidson diagonalization with overlap
     ethr =  7.61E-09,  avg # of iterations =  2.0

     total cpu time spent up to now is       65.3 secs

     End of self-consistent calculation

          k = 0.0000 0.0000 0.0000 (111965 PWs)   bands (ev):

    -9.6417  -8.0638  -8.0636  -7.5133  -6.5602  -6.5602  -4.2171  -3.7961
    -3.2507  -2.7938  -2.7936  -2.2304  -2.2303  -1.7215  -0.8803

     the Fermi energy is    -2.6475 ev

!    total energy              =     -31.67778532 Ry
     Harris-Foulkes estimate   =     -31.67778543 Ry
     estimated scf accuracy    <       0.00000016 Ry

     The total energy is the sum of the following terms:

     one-electron contribution =    -103.89431581 Ry
     hartree contribution      =      54.04234349 Ry
     xc contribution           =     -13.75793538 Ry
     ewald contribution        =      31.94700473 Ry
     smearing contrib. (-TS)   =      -0.01488235 Ry

     convergence has been achieved in   8 iterations

     Forces acting on atoms (cartesian axes, Ry/au):

     atom    1 type  1   force =     0.00000000   -0.00002571    0.00000000
     atom    2 type  1   force =    -0.00055970    0.00031502    0.00000000
     atom    3 type  1   force =     0.00000000    0.00946771    0.00000000
     atom    4 type  1   force =     0.00055970    0.00031502    0.00000000
     atom    5 type  1   force =    -0.00821391   -0.00471787    0.00000000
     atom    6 type  1   force =     0.00000000   -0.00063628    0.00000000
     atom    7 type  1   force =     0.00821391   -0.00471787    0.00000000

     Total force =     0.016441     Total SCF correction =     0.000113


     Computing stress (Cartesian axis) and pressure

          total   stress  (Ry/bohr**3)                   (kbar)     P=   -1.55
  -0.00001583   0.00000000   0.00000000         -2.33      0.00      0.00
  -0.00000000  -0.00001581   0.00000000         -0.00     -2.33      0.00
   0.00000000   0.00000000   0.00000011          0.00      0.00      0.02


     number of scf cycles    =   3
     number of bfgs steps    =   2

     enthalpy old            =     -31.6771175703 Ry
     enthalpy new            =     -31.6777853166 Ry

     CASE: enthalpy_new < enthalpy_old

     new trust radius        =       0.0246136491 bohr
     new conv_thr            =       0.0000006677 Ry

     new unit-cell volume =   9247.41019 a.u.^3 (  1370.32479 Ang^3 )
     density =      0.25432 g/cm^3

CELL_PARAMETERS (alat= 16.84048341)
   0.998101873  -0.000000000   0.000000000
  -0.499050937   0.864385115   0.000000000
   0.000000000   0.000000000   2.244265901

ATOMIC_POSITIONS (angstrom)
Al       0.000000585   2.567725120   0.000000000
Al       2.219156400   1.286492392   0.000000000
Al       4.447362500   2.595152992   0.000000000
Al       6.675602394   1.286510553   0.000000000
Al      -2.247476288   6.405570771   0.000000000
Al       0.000032038   5.130108996   0.000000000
Al       2.247506571   6.405588933   0.000000000



     Writing output data file 8al_planar_2x2_vcr.save/
     NEW-OLD atomic charge density approx. for the potential

     negative rho (up, down):  2.617E-07 0.000E+00
     extrapolated charge   20.96044, renormalised to   21.00000

     total cpu time spent up to now is       82.2 secs

     Self-consistent Calculation

     iteration #  1     ecut=    80.00 Ry     beta= 0.40
     Davidson diagonalization with overlap
     ethr =  1.00E-06,  avg # of iterations =  4.0

     negative rho (up, down):  1.347E-07 0.000E+00

     total cpu time spent up to now is       83.6 secs

     total energy              =     -31.67851765 Ry
     Harris-Foulkes estimate   =     -31.85746308 Ry
     estimated scf accuracy    <       0.00026045 Ry

     iteration #  2     ecut=    80.00 Ry     beta= 0.40
     Davidson diagonalization with overlap
     ethr =  1.24E-06,  avg # of iterations =  5.0

     negative rho (up, down):  1.071E-07 0.000E+00

     total cpu time spent up to now is       84.7 secs

     total energy              =     -31.67869706 Ry
     Harris-Foulkes estimate   =     -31.67883642 Ry
     estimated scf accuracy    <       0.00062412 Ry

     iteration #  3     ecut=    80.00 Ry     beta= 0.40
     Davidson diagonalization with overlap
     ethr =  1.24E-06,  avg # of iterations =  2.0

     negative rho (up, down):  9.124E-08 0.000E+00

     total cpu time spent up to now is       85.8 secs

     total energy              =     -31.67873352 Ry
     Harris-Foulkes estimate   =     -31.67874039 Ry
     estimated scf accuracy    <       0.00008178 Ry

     iteration #  4     ecut=    80.00 Ry     beta= 0.40
     Davidson diagonalization with overlap
     ethr =  3.89E-07,  avg # of iterations =  1.0

     total cpu time spent up to now is       86.7 secs

     total energy              =     -31.67871356 Ry
     Harris-Foulkes estimate   =     -31.67873504 Ry
     estimated scf accuracy    <       0.00005541 Ry

     iteration #  5     ecut=    80.00 Ry     beta= 0.40
     Davidson diagonalization with overlap
     ethr =  2.64E-07,  avg # of iterations =  5.0

     total cpu time spent up to now is       87.8 secs

     total energy              =     -31.67873009 Ry
     Harris-Foulkes estimate   =     -31.67873069 Ry
     estimated scf accuracy    <       0.00001151 Ry

     iteration #  6     ecut=    80.00 Ry     beta= 0.40
     Davidson diagonalization with overlap
     ethr =  5.48E-08,  avg # of iterations =  1.0

     total cpu time spent up to now is       88.8 secs

     total energy              =     -31.67872697 Ry
     Harris-Foulkes estimate   =     -31.67873030 Ry
     estimated scf accuracy    <       0.00001052 Ry

     iteration #  7     ecut=    80.00 Ry     beta= 0.40
     Davidson diagonalization with overlap
     ethr =  5.01E-08,  avg # of iterations =  2.0

     total cpu time spent up to now is       89.8 secs

     total energy              =     -31.67872685 Ry
     Harris-Foulkes estimate   =     -31.67872773 Ry
     estimated scf accuracy    <       0.00000234 Ry

     iteration #  8     ecut=    80.00 Ry     beta= 0.40
     Davidson diagonalization with overlap
     ethr =  1.11E-08,  avg # of iterations =  5.0

     total cpu time spent up to now is       90.9 secs

     End of self-consistent calculation

          k = 0.0000 0.0000 0.0000 (111965 PWs)   bands (ev):

    -9.6390  -8.0525  -8.0523  -7.5068  -6.5638  -6.5637  -4.2488  -3.7937
    -3.2395  -2.7803  -2.7800  -2.2215  -2.2214  -1.7165  -0.8835

     the Fermi energy is    -2.6352 ev

!    total energy              =     -31.67872717 Ry
     Harris-Foulkes estimate   =     -31.67872759 Ry
     estimated scf accuracy    <       0.00000061 Ry

     The total energy is the sum of the following terms:

     one-electron contribution =    -104.00311197 Ry
     hartree contribution      =      54.09768648 Ry
     xc contribution           =     -13.75517233 Ry
     ewald contribution        =      31.99724053 Ry
     smearing contrib. (-TS)   =      -0.01536987 Ry

     convergence has been achieved in   8 iterations

     Forces acting on atoms (cartesian axes, Ry/au):

     atom    1 type  1   force =    -0.00000000   -0.00003332    0.00000000
     atom    2 type  1   force =     0.00079609   -0.00045861    0.00000000
     atom    3 type  1   force =     0.00000000    0.00841968    0.00000000
     atom    4 type  1   force =    -0.00079609   -0.00045861    0.00000000
     atom    5 type  1   force =    -0.00730609   -0.00420111    0.00000000
     atom    6 type  1   force =     0.00000000    0.00093309    0.00000000
     atom    7 type  1   force =     0.00730609   -0.00420111    0.00000000

     Total force =     0.014680     Total SCF correction =     0.000505


     Computing stress (Cartesian axis) and pressure

          total   stress  (Ry/bohr**3)                   (kbar)     P=   -1.63
  -0.00001669   0.00000000   0.00000000         -2.45      0.00      0.00
   0.00000000  -0.00001666   0.00000000          0.00     -2.45      0.00
   0.00000000   0.00000000   0.00000015          0.00      0.00      0.02


     number of scf cycles    =   4
     number of bfgs steps    =   3

     enthalpy old            =     -31.6777853166 Ry
     enthalpy new            =     -31.6787271680 Ry

     CASE: enthalpy_new < enthalpy_old

     new trust radius        =       0.0368857005 bohr
     new conv_thr            =       0.0000008420 Ry

     new unit-cell volume =   9219.75960 a.u.^3 (  1366.22740 Ang^3 )
     density =      0.25508 g/cm^3

CELL_PARAMETERS (alat= 16.84048341)
   0.996606969   0.000000000   0.000000000
  -0.498303485   0.863093221   0.000000000
   0.000000000   0.000000000   2.244265901

ATOMIC_POSITIONS (angstrom)
Al       0.000000584   2.563864672   0.000000000
Al       2.214166012   1.285549280   0.000000000
Al       4.440701476   2.610718394   0.000000000
Al       6.667270683   1.285567415   0.000000000
Al      -2.261006207   6.386282333   0.000000000
Al       0.000031990   5.120490601   0.000000000
Al       2.261036445   6.386300467   0.000000000



     Writing output data file 8al_planar_2x2_vcr.save/
     NEW-OLD atomic charge density approx. for the potential

     negative rho (up, down):  4.275E-07 0.000E+00
     extrapolated charge   20.93707, renormalised to   21.00000

     total cpu time spent up to now is      107.9 secs

     Self-consistent Calculation

     iteration #  1     ecut=    80.00 Ry     beta= 0.40
     Davidson diagonalization with overlap
     ethr =  1.00E-06,  avg # of iterations =  5.0

     negative rho (up, down):  2.254E-07 0.000E+00

     total cpu time spent up to now is      109.7 secs

     total energy              =     -31.67956461 Ry
     Harris-Foulkes estimate   =     -31.96480229 Ry
     estimated scf accuracy    <       0.00054586 Ry

     iteration #  2     ecut=    80.00 Ry     beta= 0.40
     Davidson diagonalization with overlap
     ethr =  2.60E-06,  avg # of iterations =  5.0

     negative rho (up, down):  1.813E-07 0.000E+00

     total cpu time spent up to now is      110.8 secs

     total energy              =     -31.67997470 Ry
     Harris-Foulkes estimate   =     -31.68028268 Ry
     estimated scf accuracy    <       0.00141775 Ry

     iteration #  3     ecut=    80.00 Ry     beta= 0.40
     Davidson diagonalization with overlap
     ethr =  2.60E-06,  avg # of iterations =  2.0

     negative rho (up, down):  1.507E-07 0.000E+00

     total cpu time spent up to now is      111.8 secs

     total energy              =     -31.68004721 Ry
     Harris-Foulkes estimate   =     -31.68006691 Ry
     estimated scf accuracy    <       0.00020490 Ry

     iteration #  4     ecut=    80.00 Ry     beta= 0.40
     Davidson diagonalization with overlap
     ethr =  9.76E-07,  avg # of iterations =  1.0

     negative rho (up, down):  1.176E-08 0.000E+00

     total cpu time spent up to now is      112.6 secs

     total energy              =     -31.68000052 Ry
     Harris-Foulkes estimate   =     -31.68005134 Ry
     estimated scf accuracy    <       0.00012900 Ry

     iteration #  5     ecut=    80.00 Ry     beta= 0.40
     Davidson diagonalization with overlap
     ethr =  6.14E-07,  avg # of iterations =  5.0

     negative rho (up, down):  1.160E-08 0.000E+00

     total cpu time spent up to now is      113.8 secs

     total energy              =     -31.68004344 Ry
     Harris-Foulkes estimate   =     -31.68004358 Ry
     estimated scf accuracy    <       0.00003089 Ry

     iteration #  6     ecut=    80.00 Ry     beta= 0.40
     Davidson diagonalization with overlap
     ethr =  1.47E-07,  avg # of iterations =  1.0

     negative rho (up, down):  1.001E-08 0.000E+00

     total cpu time spent up to now is      114.7 secs

     total energy              =     -31.68004446 Ry
     Harris-Foulkes estimate   =     -31.68004402 Ry
     estimated scf accuracy    <       0.00003065 Ry

     iteration #  7     ecut=    80.00 Ry     beta= 0.40
     Davidson diagonalization with overlap
     ethr =  1.46E-07,  avg # of iterations =  1.0

     negative rho (up, down):  1.186E-08 0.000E+00

     total cpu time spent up to now is      115.6 secs

     total energy              =     -31.68004491 Ry
     Harris-Foulkes estimate   =     -31.68004469 Ry
     estimated scf accuracy    <       0.00003286 Ry

     iteration #  8     ecut=    80.00 Ry     beta= 0.40
     Davidson diagonalization with overlap
     ethr =  1.46E-07,  avg # of iterations =  1.0

     negative rho (up, down):  1.359E-08 0.000E+00

     total cpu time spent up to now is      116.4 secs

     total energy              =     -31.68004565 Ry
     Harris-Foulkes estimate   =     -31.68004529 Ry
     estimated scf accuracy    <       0.00003602 Ry

     iteration #  9     ecut=    80.00 Ry     beta= 0.40
     Davidson diagonalization with overlap
     ethr =  1.46E-07,  avg # of iterations =  1.0

     total cpu time spent up to now is      117.4 secs

     total energy              =     -31.68004343 Ry
     Harris-Foulkes estimate   =     -31.68004741 Ry
     estimated scf accuracy    <       0.00005599 Ry

     iteration # 10     ecut=    80.00 Ry     beta= 0.40
     Davidson diagonalization with overlap
     ethr =  1.46E-07,  avg # of iterations =  4.0

     total cpu time spent up to now is      118.3 secs

     total energy              =     -31.68002761 Ry
     Harris-Foulkes estimate   =     -31.68004494 Ry
     estimated scf accuracy    <       0.00007126 Ry

     iteration # 11     ecut=    80.00 Ry     beta= 0.40
     Davidson diagonalization with overlap
     ethr =  1.46E-07,  avg # of iterations =  3.0

     total cpu time spent up to now is      119.5 secs

     total energy              =     -31.68003499 Ry
     Harris-Foulkes estimate   =     -31.68003957 Ry
     estimated scf accuracy    <       0.00006061 Ry

     iteration # 12     ecut=    80.00 Ry     beta= 0.40
     Davidson diagonalization with overlap
     ethr =  1.46E-07,  avg # of iterations =  1.0

     total cpu time spent up to now is      120.5 secs

     total energy              =     -31.68002762 Ry
     Harris-Foulkes estimate   =     -31.68003621 Ry
     estimated scf accuracy    <       0.00003180 Ry

     iteration # 13     ecut=    80.00 Ry     beta= 0.40
     Davidson diagonalization with overlap
     ethr =  1.46E-07,  avg # of iterations =  4.0

     total cpu time spent up to now is      121.6 secs

     total energy              =     -31.68003287 Ry
     Harris-Foulkes estimate   =     -31.68003654 Ry
     estimated scf accuracy    <       0.00000475 Ry

     iteration # 14     ecut=    80.00 Ry     beta= 0.40
     Davidson diagonalization with overlap
     ethr =  2.26E-08,  avg # of iterations =  3.0

     total cpu time spent up to now is      122.7 secs

     total energy              =     -31.68003484 Ry
     Harris-Foulkes estimate   =     -31.68003482 Ry
     estimated scf accuracy    <       0.00000209 Ry

     iteration # 15     ecut=    80.00 Ry     beta= 0.40
     Davidson diagonalization with overlap
     ethr =  9.93E-09,  avg # of iterations =  2.0

     total cpu time spent up to now is      123.7 secs

     End of self-consistent calculation

          k = 0.0000 0.0000 0.0000 (111965 PWs)   bands (ev):

    -9.6342  -8.0350  -8.0348  -7.4953  -6.5668  -6.5667  -4.2946  -3.7897
    -3.2207  -2.7575  -2.7574  -2.2075  -2.2074  -1.7079  -0.8861

     the Fermi energy is    -2.6151 ev

!    total energy              =     -31.68003514 Ry
     Harris-Foulkes estimate   =     -31.68003525 Ry
     estimated scf accuracy    <       0.00000017 Ry

     The total energy is the sum of the following terms:

     one-electron contribution =    -104.18455265 Ry
     hartree contribution      =      54.18869172 Ry
     xc contribution           =     -13.75103762 Ry
     ewald contribution        =      32.08305502 Ry
     smearing contrib. (-TS)   =      -0.01619161 Ry

     convergence has been achieved in  15 iterations

     Forces acting on atoms (cartesian axes, Ry/au):

     atom    1 type  1   force =     0.00000000   -0.00000285    0.00000000
     atom    2 type  1   force =     0.00264833   -0.00155896    0.00000000
     atom    3 type  1   force =    -0.00000000    0.00701064    0.00000000
     atom    4 type  1   force =    -0.00264833   -0.00155896    0.00000000
     atom    5 type  1   force =    -0.00605409   -0.00348956    0.00000000
     atom    6 type  1   force =    -0.00000000    0.00308925    0.00000000
     atom    7 type  1   force =     0.00605409   -0.00348956    0.00000000

     Total force =     0.013238     Total SCF correction =     0.000226


     Computing stress (Cartesian axis) and pressure

          total   stress  (Ry/bohr**3)                   (kbar)     P=   -1.75
  -0.00001787  -0.00000000   0.00000000         -2.63     -0.00      0.00
  -0.00000000  -0.00001786   0.00000000         -0.00     -2.63      0.00
   0.00000000  -0.00000000   0.00000001          0.00     -0.00      0.00


     number of scf cycles    =   5
     number of bfgs steps    =   4

     enthalpy old            =     -31.6787271680 Ry
     enthalpy new            =     -31.6800351403 Ry

     CASE: enthalpy_new < enthalpy_old

     new trust radius        =       0.0552457260 bohr
     new conv_thr            =       0.0000007011 Ry

     new unit-cell volume =   9176.20578 a.u.^3 (  1359.77339 Ang^3 )
     density =      0.25630 g/cm^3

CELL_PARAMETERS (alat= 16.84048341)
   0.994247989  -0.000000000   0.000000000
  -0.497123994   0.861054123   0.000000000
   0.000000000   0.000000000   2.244265901

ATOMIC_POSITIONS (angstrom)
Al       0.000000583   2.557801408   0.000000000
Al       2.207633205   1.283260324   0.000000000
Al       4.430190283   2.633670136   0.000000000
Al       6.652781023   1.283278416   0.000000000
Al      -2.280934999   6.356650610   0.000000000
Al       0.000031914   5.106870785   0.000000000
Al       2.280965165   6.356668701   0.000000000



     Writing output data file 8al_planar_2x2_vcr.save/
     NEW-OLD atomic charge density approx. for the potential

     negative rho (up, down):  9.127E-07 0.000E+00
     extrapolated charge   20.90041, renormalised to   21.00000

     total cpu time spent up to now is      138.4 secs

     Self-consistent Calculation

     iteration #  1     ecut=    80.00 Ry     beta= 0.40
     Davidson diagonalization with overlap
     ethr =  1.00E-06,  avg # of iterations =  5.0

     negative rho (up, down):  4.953E-07 0.000E+00

     total cpu time spent up to now is      139.9 secs

     total energy              =     -31.68065637 Ry
     Harris-Foulkes estimate   =     -32.13374323 Ry
     estimated scf accuracy    <       0.00133166 Ry

     iteration #  2     ecut=    80.00 Ry     beta= 0.40
     Davidson diagonalization with overlap
     ethr =  6.34E-06,  avg # of iterations =  5.0

     negative rho (up, down):  4.029E-07 0.000E+00

     total cpu time spent up to now is      141.1 secs

     total energy              =     -31.68164715 Ry
     Harris-Foulkes estimate   =     -31.68244356 Ry
     estimated scf accuracy    <       0.00372552 Ry

     iteration #  3     ecut=    80.00 Ry     beta= 0.40
     Davidson diagonalization with overlap
     ethr =  6.34E-06,  avg # of iterations =  2.0

     negative rho (up, down):  3.362E-07 0.000E+00

     total cpu time spent up to now is      142.0 secs

     total energy              =     -31.68183027 Ry
     Harris-Foulkes estimate   =     -31.68187955 Ry
     estimated scf accuracy    <       0.00052569 Ry

     iteration #  4     ecut=    80.00 Ry     beta= 0.40
     Davidson diagonalization with overlap
     ethr =  2.50E-06,  avg # of iterations =  1.0

     negative rho (up, down):  5.349E-08 0.000E+00

     total cpu time spent up to now is      142.9 secs

     total energy              =     -31.68172606 Ry
     Harris-Foulkes estimate   =     -31.68184100 Ry
     estimated scf accuracy    <       0.00032467 Ry

     iteration #  5     ecut=    80.00 Ry     beta= 0.40
     Davidson diagonalization with overlap
     ethr =  1.55E-06,  avg # of iterations =  5.0

     negative rho (up, down):  4.843E-08 0.000E+00

     total cpu time spent up to now is      144.0 secs

     total energy              =     -31.68180989 Ry
     Harris-Foulkes estimate   =     -31.68181323 Ry
     estimated scf accuracy    <       0.00003945 Ry

     iteration #  6     ecut=    80.00 Ry     beta= 0.40
     Davidson diagonalization with overlap
     ethr =  1.88E-07,  avg # of iterations =  3.0

     negative rho (up, down):  3.660E-08 0.000E+00

     total cpu time spent up to now is      144.9 secs

     total energy              =     -31.68180629 Ry
     Harris-Foulkes estimate   =     -31.68181267 Ry
     estimated scf accuracy    <       0.00003242 Ry

     iteration #  7     ecut=    80.00 Ry     beta= 0.40
     Davidson diagonalization with overlap
     ethr =  1.54E-07,  avg # of iterations =  1.0

     total cpu time spent up to now is      145.8 secs

     total energy              =     -31.68180225 Ry
     Harris-Foulkes estimate   =     -31.68180724 Ry
     estimated scf accuracy    <       0.00001615 Ry

     iteration #  8     ecut=    80.00 Ry     beta= 0.40
     Davidson diagonalization with overlap
     ethr =  7.69E-08,  avg # of iterations =  3.0

     total cpu time spent up to now is      146.8 secs

     total energy              =     -31.68180483 Ry
     Harris-Foulkes estimate   =     -31.68180530 Ry
     estimated scf accuracy    <       0.00000193 Ry

     iteration #  9     ecut=    80.00 Ry     beta= 0.40
     Davidson diagonalization with overlap
     ethr =  9.20E-09,  avg # of iterations =  5.0

     total cpu time spent up to now is      148.0 secs

     total energy              =     -31.68180503 Ry
     Harris-Foulkes estimate   =     -31.68180513 Ry
     estimated scf accuracy    <       0.00000072 Ry

     iteration # 10     ecut=    80.00 Ry     beta= 0.40
     Davidson diagonalization with overlap
     ethr =  3.41E-09,  avg # of iterations =  2.0

     total cpu time spent up to now is      148.9 secs

     End of self-consistent calculation

          k = 0.0000 0.0000 0.0000 (111965 PWs)   bands (ev):

    -9.6325  -8.0136  -8.0134  -7.4831  -6.5755  -6.5753  -4.3709  -3.7874
    -3.1961  -2.7271  -2.7269  -2.1895  -2.1894  -1.6988  -0.8922

     the Fermi energy is    -2.5885 ev

!    total energy              =     -31.68180464 Ry
     Harris-Foulkes estimate   =     -31.68180512 Ry
     estimated scf accuracy    <       0.00000060 Ry

     The total energy is the sum of the following terms:

     one-electron contribution =    -104.49010211 Ry
     hartree contribution      =      54.34368270 Ry
     xc contribution           =     -13.74611368 Ry
     ewald contribution        =      32.22802484 Ry
     smearing contrib. (-TS)   =      -0.01729638 Ry

     convergence has been achieved in  10 iterations

     Forces acting on atoms (cartesian axes, Ry/au):

     atom    1 type  1   force =    -0.00000000   -0.00000552    0.00000000
     atom    2 type  1   force =     0.00496260   -0.00290287    0.00000000
     atom    3 type  1   force =     0.00000000    0.00502566    0.00000000
     atom    4 type  1   force =    -0.00496260   -0.00290287    0.00000000
     atom    5 type  1   force =    -0.00433469   -0.00249191    0.00000000
     atom    6 type  1   force =     0.00000000    0.00576941    0.00000000
     atom    7 type  1   force =     0.00433469   -0.00249191    0.00000000

     Total force =     0.013216     Total SCF correction =     0.000348


     Computing stress (Cartesian axis) and pressure

          total   stress  (Ry/bohr**3)                   (kbar)     P=   -1.91
  -0.00001956  -0.00000000   0.00000000         -2.88     -0.00      0.00
  -0.00000000  -0.00001953   0.00000000         -0.00     -2.87      0.00
   0.00000000   0.00000000   0.00000016          0.00      0.00      0.02


     number of scf cycles    =   6
     number of bfgs steps    =   5

     enthalpy old            =     -31.6800351403 Ry
     enthalpy new            =     -31.6818046398 Ry

     CASE: enthalpy_new < enthalpy_old

     new trust radius        =       0.0826725301 bohr
     new conv_thr            =       0.0000005769 Ry

     new unit-cell volume =   9107.77785 a.u.^3 (  1349.63342 Ang^3 )
     density =      0.25822 g/cm^3

CELL_PARAMETERS (alat= 16.84048341)
   0.990530163  -0.000000000   0.000000000
  -0.495265082   0.857840907   0.000000000
   0.000000000   0.000000000   2.244265901

ATOMIC_POSITIONS (angstrom)
Al       0.000000580   2.548250730   0.000000000
Al       2.199061823   1.278651898   0.000000000
Al       4.413624321   2.667358317   0.000000000
Al       6.628220354   1.278669922   0.000000000
Al      -2.310187299   6.311199077   0.000000000
Al       0.000031795   5.087402540   0.000000000
Al       2.310217352   6.311217101   0.000000000



     Writing output data file 8al_planar_2x2_vcr.save/
     NEW-OLD atomic charge density approx. for the potential

     negative rho (up, down):  2.695E-06 0.000E+00
     extrapolated charge   20.84235, renormalised to   21.00000

     total cpu time spent up to now is      163.6 secs

     Self-consistent Calculation

     iteration #  1     ecut=    80.00 Ry     beta= 0.40
     Davidson diagonalization with overlap
     ethr =  1.00E-06,  avg # of iterations =  7.0

     negative rho (up, down):  1.512E-06 0.000E+00

     total cpu time spent up to now is      165.2 secs

     total energy              =     -31.68146216 Ry
     Harris-Foulkes estimate   =     -32.40277636 Ry
     estimated scf accuracy    <       0.00291270 Ry

     iteration #  2     ecut=    80.00 Ry     beta= 0.40
     Davidson diagonalization with overlap
     ethr =  1.39E-05,  avg # of iterations =  5.0

     negative rho (up, down):  1.248E-06 0.000E+00

     total cpu time spent up to now is      166.4 secs

     total energy              =     -31.68374847 Ry
     Harris-Foulkes estimate   =     -31.68560969 Ry
     estimated scf accuracy    <       0.00899324 Ry

     iteration #  3     ecut=    80.00 Ry     beta= 0.40
     Davidson diagonalization with overlap
     ethr =  1.39E-05,  avg # of iterations =  2.0

     negative rho (up, down):  1.026E-06 0.000E+00

     total cpu time spent up to now is      167.3 secs

     total energy              =     -31.68417154 Ry
     Harris-Foulkes estimate   =     -31.68430144 Ry
     estimated scf accuracy    <       0.00130272 Ry

     iteration #  4     ecut=    80.00 Ry     beta= 0.40
     Davidson diagonalization with overlap
     ethr =  6.20E-06,  avg # of iterations =  1.0

     negative rho (up, down):  1.771E-07 0.000E+00

     total cpu time spent up to now is      168.2 secs

     total energy              =     -31.68393291 Ry
     Harris-Foulkes estimate   =     -31.68419600 Ry
     estimated scf accuracy    <       0.00076356 Ry

     iteration #  5     ecut=    80.00 Ry     beta= 0.40
     Davidson diagonalization with overlap
     ethr =  3.64E-06,  avg # of iterations =  5.0

     negative rho (up, down):  1.610E-07 0.000E+00

     total cpu time spent up to now is      169.3 secs

     total energy              =     -31.68411735 Ry
     Harris-Foulkes estimate   =     -31.68412489 Ry
     estimated scf accuracy    <       0.00009375 Ry

     iteration #  6     ecut=    80.00 Ry     beta= 0.40
     Davidson diagonalization with overlap
     ethr =  4.46E-07,  avg # of iterations =  3.0

     negative rho (up, down):  1.423E-07 0.000E+00

     total cpu time spent up to now is      170.3 secs

     total energy              =     -31.68411454 Ry
     Harris-Foulkes estimate   =     -31.68412458 Ry
     estimated scf accuracy    <       0.00007917 Ry

     iteration #  7     ecut=    80.00 Ry     beta= 0.40
     Davidson diagonalization with overlap
     ethr =  3.77E-07,  avg # of iterations =  1.0

     total cpu time spent up to now is      171.2 secs

     total energy              =     -31.68409469 Ry
     Harris-Foulkes estimate   =     -31.68411562 Ry
     estimated scf accuracy    <       0.00005511 Ry

     iteration #  8     ecut=    80.00 Ry     beta= 0.40
     Davidson diagonalization with overlap
     ethr =  2.62E-07,  avg # of iterations =  2.0

     total cpu time spent up to now is      172.2 secs

     total energy              =     -31.68410478 Ry
     Harris-Foulkes estimate   =     -31.68410596 Ry
     estimated scf accuracy    <       0.00000532 Ry

     iteration #  9     ecut=    80.00 Ry     beta= 0.40
     Davidson diagonalization with overlap
     ethr =  2.53E-08,  avg # of iterations =  5.0

     total cpu time spent up to now is      173.3 secs

     total energy              =     -31.68410478 Ry
     Harris-Foulkes estimate   =     -31.68410550 Ry
     estimated scf accuracy    <       0.00000223 Ry

     iteration # 10     ecut=    80.00 Ry     beta= 0.40
     Davidson diagonalization with overlap
     ethr =  1.06E-08,  avg # of iterations =  2.0

     total cpu time spent up to now is      174.2 secs

     total energy              =     -31.68410489 Ry
     Harris-Foulkes estimate   =     -31.68410498 Ry
     estimated scf accuracy    <       0.00000062 Ry

     iteration # 11     ecut=    80.00 Ry     beta= 0.40
     Davidson diagonalization with overlap
     ethr =  2.95E-09,  avg # of iterations =  5.0

     total cpu time spent up to now is      175.4 secs

     total energy              =     -31.68410483 Ry
     Harris-Foulkes estimate   =     -31.68410514 Ry
     estimated scf accuracy    <       0.00000078 Ry

     iteration # 12     ecut=    80.00 Ry     beta= 0.40
     Davidson diagonalization with overlap
     ethr =  2.95E-09,  avg # of iterations =  2.0

     total cpu time spent up to now is      176.4 secs

     End of self-consistent calculation

          k = 0.0000 0.0000 0.0000 (111965 PWs)   bands (ev):

    -9.6292  -7.9793  -7.9789  -7.4636  -6.5846  -6.5844  -4.4863  -3.7835
    -3.1536  -2.6775  -2.6773  -2.1605  -2.1603  -1.6851  -0.8976

     the Fermi energy is    -2.5456 ev

!    total energy              =     -31.68410490 Ry
     Harris-Foulkes estimate   =     -31.68410492 Ry
     estimated scf accuracy    <       0.00000004 Ry

     The total energy is the sum of the following terms:

     one-electron contribution =    -104.99729688 Ry
     hartree contribution      =      54.59760886 Ry
     xc contribution           =     -13.73886708 Ry
     ewald contribution        =      32.47348832 Ry
     smearing contrib. (-TS)   =      -0.01903812 Ry

     convergence has been achieved in  12 iterations

     Forces acting on atoms (cartesian axes, Ry/au):

     atom    1 type  1   force =    -0.00000000   -0.00000780    0.00000000
     atom    2 type  1   force =     0.00805610   -0.00469408    0.00000000
     atom    3 type  1   force =     0.00000000    0.00225074    0.00000000
     atom    4 type  1   force =    -0.00805610   -0.00469408    0.00000000
     atom    5 type  1   force =    -0.00192199   -0.00110869    0.00000000
     atom    6 type  1   force =     0.00000000    0.00936260    0.00000000
     atom    7 type  1   force =     0.00192199   -0.00110869    0.00000000

     Total force =     0.016627     Total SCF correction =     0.000108


     Computing stress (Cartesian axis) and pressure

          total   stress  (Ry/bohr**3)                   (kbar)     P=   -2.15
  -0.00002199  -0.00000000   0.00000000         -3.23     -0.00      0.00
  -0.00000000  -0.00002195   0.00000000         -0.00     -3.23      0.00
   0.00000000   0.00000000   0.00000002          0.00      0.00      0.00


     number of scf cycles    =   7
     number of bfgs steps    =   6

     enthalpy old            =     -31.6818046398 Ry
     enthalpy new            =     -31.6841048968 Ry

     CASE: enthalpy_new < enthalpy_old

     new trust radius        =       0.1235453194 bohr
     new conv_thr            =       0.0000009363 Ry

     new unit-cell volume =   9000.27590 a.u.^3 (  1333.70327 Ang^3 )
     density =      0.26131 g/cm^3

CELL_PARAMETERS (alat= 16.84048341)
   0.984660782  -0.000000000   0.000000000
  -0.492330391   0.852768618   0.000000000
   0.000000000   0.000000000   2.244265901

ATOMIC_POSITIONS (angstrom)
Al       0.000000577   2.533181191   0.000000000
Al       2.188029694   1.269929893   0.000000000
Al       4.387471414   2.716476764   0.000000000
Al       6.586946471   1.269947811   0.000000000
Al      -2.352832044   6.241474587   0.000000000
Al       0.000031607   5.059571050   0.000000000
Al       2.352861919   6.241492505   0.000000000



     Writing output data file 8al_planar_2x2_vcr.save/
     NEW-OLD atomic charge density approx. for the potential

     negative rho (up, down):  7.275E-06 0.000E+00
     extrapolated charge   20.74937, renormalised to   21.00000

     total cpu time spent up to now is      192.6 secs

     Self-consistent Calculation

     iteration #  1     ecut=    80.00 Ry     beta= 0.40
     Davidson diagonalization with overlap
     ethr =  1.00E-06,  avg # of iterations =  8.0

     negative rho (up, down):  4.238E-06 0.000E+00

     total cpu time spent up to now is      194.6 secs

     total energy              =     -31.68037400 Ry
     Harris-Foulkes estimate   =     -32.83837671 Ry
     estimated scf accuracy    <       0.00722418 Ry

     iteration #  2     ecut=    80.00 Ry     beta= 0.40
     Davidson diagonalization with overlap
     ethr =  3.44E-05,  avg # of iterations =  5.0

     negative rho (up, down):  3.524E-06 0.000E+00

     total cpu time spent up to now is      196.0 secs

     total energy              =     -31.68594221 Ry
     Harris-Foulkes estimate   =     -31.69081314 Ry
     estimated scf accuracy    <       0.02395391 Ry

     iteration #  3     ecut=    80.00 Ry     beta= 0.40
     Davidson diagonalization with overlap
     ethr =  3.44E-05,  avg # of iterations =  2.0

     negative rho (up, down):  2.881E-06 0.000E+00

     total cpu time spent up to now is      197.1 secs

     total energy              =     -31.68701306 Ry
     Harris-Foulkes estimate   =     -31.68736186 Ry
     estimated scf accuracy    <       0.00338681 Ry

     iteration #  4     ecut=    80.00 Ry     beta= 0.40
     Davidson diagonalization with overlap
     ethr =  1.61E-05,  avg # of iterations =  1.0

     negative rho (up, down):  6.511E-07 0.000E+00

     total cpu time spent up to now is      198.1 secs

     total energy              =     -31.68647620 Ry
     Harris-Foulkes estimate   =     -31.68708748 Ry
     estimated scf accuracy    <       0.00189438 Ry

     iteration #  5     ecut=    80.00 Ry     beta= 0.40
     Davidson diagonalization with overlap
     ethr =  9.02E-06,  avg # of iterations =  4.0

     negative rho (up, down):  6.188E-07 0.000E+00

     total cpu time spent up to now is      199.5 secs

     total energy              =     -31.68692570 Ry
     Harris-Foulkes estimate   =     -31.68693286 Ry
     estimated scf accuracy    <       0.00015264 Ry

     iteration #  6     ecut=    80.00 Ry     beta= 0.40
     Davidson diagonalization with overlap
     ethr =  7.27E-07,  avg # of iterations =  3.0

     negative rho (up, down):  6.480E-07 0.000E+00

     total cpu time spent up to now is      200.6 secs

     total energy              =     -31.68694109 Ry
     Harris-Foulkes estimate   =     -31.68695560 Ry
     estimated scf accuracy    <       0.00017536 Ry

     iteration #  7     ecut=    80.00 Ry     beta= 0.40
     Davidson diagonalization with overlap
     ethr =  7.27E-07,  avg # of iterations =  1.0

     negative rho (up, down):  1.665E-07 0.000E+00

     total cpu time spent up to now is      201.5 secs

     total energy              =     -31.68685826 Ry
     Harris-Foulkes estimate   =     -31.68694320 Ry
     estimated scf accuracy    <       0.00013581 Ry

     iteration #  8     ecut=    80.00 Ry     beta= 0.40
     Davidson diagonalization with overlap
     ethr =  6.47E-07,  avg # of iterations =  5.0

     negative rho (up, down):  1.757E-08 0.000E+00

     total cpu time spent up to now is      202.8 secs

     total energy              =     -31.68692993 Ry
     Harris-Foulkes estimate   =     -31.68694576 Ry
     estimated scf accuracy    <       0.00018462 Ry

     iteration #  9     ecut=    80.00 Ry     beta= 0.40
     Davidson diagonalization with overlap
     ethr =  6.47E-07,  avg # of iterations =  1.0

     negative rho (up, down):  3.315E-08 0.000E+00

     total cpu time spent up to now is      204.0 secs

     total energy              =     -31.68689892 Ry
     Harris-Foulkes estimate   =     -31.68693276 Ry
     estimated scf accuracy    <       0.00011087 Ry

     iteration # 10     ecut=    80.00 Ry     beta= 0.40
     Davidson diagonalization with overlap
     ethr =  5.28E-07,  avg # of iterations =  4.0

     negative rho (up, down):  2.802E-08 0.000E+00

     total cpu time spent up to now is      205.0 secs

     total energy              =     -31.68691452 Ry
     Harris-Foulkes estimate   =     -31.68691403 Ry
     estimated scf accuracy    <       0.00000550 Ry

     iteration # 11     ecut=    80.00 Ry     beta= 0.40
     Davidson diagonalization with overlap
     ethr =  2.62E-08,  avg # of iterations =  5.0

     negative rho (up, down):  1.153E-08 0.000E+00

     total cpu time spent up to now is      206.4 secs

     total energy              =     -31.68691061 Ry
     Harris-Foulkes estimate   =     -31.68692002 Ry
     estimated scf accuracy    <       0.00001812 Ry

     iteration # 12     ecut=    80.00 Ry     beta= 0.40
     Davidson diagonalization with overlap
     ethr =  2.62E-08,  avg # of iterations =  5.0

     total cpu time spent up to now is      207.8 secs

     total energy              =     -31.68691676 Ry
     Harris-Foulkes estimate   =     -31.68691591 Ry
     estimated scf accuracy    <       0.00000394 Ry

     iteration # 13     ecut=    80.00 Ry     beta= 0.40
     Davidson diagonalization with overlap
     ethr =  1.87E-08,  avg # of iterations =  1.0

     total cpu time spent up to now is      208.7 secs

     total energy              =     -31.68691517 Ry
     Harris-Foulkes estimate   =     -31.68691694 Ry
     estimated scf accuracy    <       0.00000526 Ry

     iteration # 14     ecut=    80.00 Ry     beta= 0.40
     Davidson diagonalization with overlap
     ethr =  1.87E-08,  avg # of iterations =  1.0

     total cpu time spent up to now is      209.5 secs

     End of self-consistent calculation

          k = 0.0000 0.0000 0.0000 (111965 PWs)   bands (ev):

    -9.6314  -7.9308  -7.9303  -7.4425  -6.5989  -6.5986  -4.6676  -3.7827
    -3.0856  -2.6059  -2.6057  -2.1180  -2.1178  -1.6718  -0.9042

     the Fermi energy is    -2.4836 ev

!    total energy              =     -31.68691503 Ry
     Harris-Foulkes estimate   =     -31.68691555 Ry
     estimated scf accuracy    <       0.00000068 Ry

     The total energy is the sum of the following terms:

     one-electron contribution =    -105.85844311 Ry
     hartree contribution      =      55.02952326 Ry
     xc contribution           =     -13.73032311 Ry
     ewald contribution        =      32.89391752 Ry
     smearing contrib. (-TS)   =      -0.02158959 Ry

     convergence has been achieved in  14 iterations

     Forces acting on atoms (cartesian axes, Ry/au):

     atom    1 type  1   force =    -0.00000000   -0.00000858    0.00000000
     atom    2 type  1   force =     0.01193638   -0.00696397    0.00000000
     atom    3 type  1   force =    -0.00000000   -0.00152759    0.00000000
     atom    4 type  1   force =    -0.01193638   -0.00696397    0.00000000
     atom    5 type  1   force =     0.00135766    0.00079874    0.00000000
     atom    6 type  1   force =     0.00000000    0.01386664    0.00000000
     atom    7 type  1   force =    -0.00135766    0.00079874    0.00000000

     Total force =     0.024115     Total SCF correction =     0.000489


     Computing stress (Cartesian axis) and pressure

          total   stress  (Ry/bohr**3)                   (kbar)     P=   -2.50
  -0.00002545  -0.00000000   0.00000000         -3.74     -0.00      0.00
  -0.00000000  -0.00002537   0.00000000         -0.00     -3.73      0.00
   0.00000000   0.00000000  -0.00000007          0.00      0.00     -0.01


     number of scf cycles    =   8
     number of bfgs steps    =   7

     enthalpy old            =     -31.6841048968 Ry
     enthalpy new            =     -31.6869150283 Ry

     CASE: enthalpy_new < enthalpy_old

     new trust radius        =       0.1842204609 bohr
     new conv_thr            =       0.0000010000 Ry

     new unit-cell volume =   8830.82423 a.u.^3 (  1308.59312 Ang^3 )
     density =      0.26632 g/cm^3

CELL_PARAMETERS (alat= 16.84048341)
   0.975336719  -0.000000000   0.000000000
  -0.487668359   0.844712058   0.000000000
   0.000000000   0.000000000   2.244265901

ATOMIC_POSITIONS (angstrom)
Al       0.000000572   2.509258278   0.000000000
Al       2.174246371   1.253886318   0.000000000
Al       4.345925064   2.787238446   0.000000000
Al       6.517636779   1.253904066   0.000000000
Al      -2.414259803   6.134368558   0.000000000
Al       0.000031307   5.019706222   0.000000000
Al       2.414289396   6.134386306   0.000000000



     Writing output data file 8al_planar_2x2_vcr.save/
     NEW-OLD atomic charge density approx. for the potential

     negative rho (up, down):  1.318E-05 0.000E+00
     extrapolated charge   20.59737, renormalised to   21.00000

     total cpu time spent up to now is      224.2 secs

     Self-consistent Calculation

     iteration #  1     ecut=    80.00 Ry     beta= 0.40
     Davidson diagonalization with overlap
     ethr =  1.00E-06,  avg # of iterations =  9.0

     negative rho (up, down):  7.890E-06 0.000E+00

     total cpu time spent up to now is      226.1 secs

     total energy              =     -31.67402743 Ry
     Harris-Foulkes estimate   =     -33.56461250 Ry
     estimated scf accuracy    <       0.01744042 Ry

     iteration #  2     ecut=    80.00 Ry     beta= 0.40
     Davidson diagonalization with overlap
     ethr =  8.30E-05,  avg # of iterations =  5.0

     negative rho (up, down):  6.576E-06 0.000E+00

     total cpu time spent up to now is      227.3 secs

     total energy              =     -31.68748606 Ry
     Harris-Foulkes estimate   =     -31.69972793 Ry
     estimated scf accuracy    <       0.06125586 Ry

     iteration #  3     ecut=    80.00 Ry     beta= 0.40
     Davidson diagonalization with overlap
     ethr =  8.30E-05,  avg # of iterations =  2.0

     negative rho (up, down):  5.356E-06 0.000E+00

     total cpu time spent up to now is      228.2 secs

     total energy              =     -31.69018238 Ry
     Harris-Foulkes estimate   =     -31.69107509 Ry
     estimated scf accuracy    <       0.00855290 Ry

     iteration #  4     ecut=    80.00 Ry     beta= 0.40
     Davidson diagonalization with overlap
     ethr =  4.07E-05,  avg # of iterations =  1.0

     negative rho (up, down):  1.503E-06 0.000E+00

     total cpu time spent up to now is      229.0 secs

     total energy              =     -31.68897675 Ry
     Harris-Foulkes estimate   =     -31.69038235 Ry
     estimated scf accuracy    <       0.00468581 Ry

     iteration #  5     ecut=    80.00 Ry     beta= 0.40
     Davidson diagonalization with overlap
     ethr =  2.23E-05,  avg # of iterations =  4.0

     negative rho (up, down):  1.427E-06 0.000E+00

     total cpu time spent up to now is      230.1 secs

     total energy              =     -31.69003196 Ry
     Harris-Foulkes estimate   =     -31.69005376 Ry
     estimated scf accuracy    <       0.00034203 Ry

     iteration #  6     ecut=    80.00 Ry     beta= 0.40
     Davidson diagonalization with overlap
     ethr =  1.63E-06,  avg # of iterations =  3.0

     negative rho (up, down):  1.447E-06 0.000E+00

     total cpu time spent up to now is      231.2 secs

     total energy              =     -31.69007047 Ry
     Harris-Foulkes estimate   =     -31.69011210 Ry
     estimated scf accuracy    <       0.00038370 Ry

     iteration #  7     ecut=    80.00 Ry     beta= 0.40
     Davidson diagonalization with overlap
     ethr =  1.63E-06,  avg # of iterations =  1.0

     total cpu time spent up to now is      232.1 secs

     total energy              =     -31.68991362 Ry
     Harris-Foulkes estimate   =     -31.69007766 Ry
     estimated scf accuracy    <       0.00026668 Ry

     iteration #  8     ecut=    80.00 Ry     beta= 0.40
     Davidson diagonalization with overlap
     ethr =  1.27E-06,  avg # of iterations =  5.0

     negative rho (up, down):  5.282E-08 0.000E+00

     total cpu time spent up to now is      233.5 secs

     total energy              =     -31.68999147 Ry
     Harris-Foulkes estimate   =     -31.69019507 Ry
     estimated scf accuracy    <       0.00082044 Ry

     iteration #  9     ecut=    80.00 Ry     beta= 0.40
     Davidson diagonalization with overlap
     ethr =  1.27E-06,  avg # of iterations =  4.0

     negative rho (up, down):  2.149E-08 0.000E+00

     total cpu time spent up to now is      234.8 secs

     total energy              =     -31.69002780 Ry
     Harris-Foulkes estimate   =     -31.69004380 Ry
     estimated scf accuracy    <       0.00012192 Ry

     iteration # 10     ecut=    80.00 Ry     beta= 0.40
     Davidson diagonalization with overlap
     ethr =  5.81E-07,  avg # of iterations =  1.0

     negative rho (up, down):  4.224E-08 0.000E+00

     total cpu time spent up to now is      235.7 secs

     total energy              =     -31.69000759 Ry
     Harris-Foulkes estimate   =     -31.69003259 Ry
     estimated scf accuracy    <       0.00005743 Ry

     iteration # 11     ecut=    80.00 Ry     beta= 0.40
     Davidson diagonalization with overlap
     ethr =  2.73E-07,  avg # of iterations =  5.0

     negative rho (up, down):  1.070E-08 0.000E+00

     total cpu time spent up to now is      237.0 secs

     total energy              =     -31.69002628 Ry
     Harris-Foulkes estimate   =     -31.69004356 Ry
     estimated scf accuracy    <       0.00004918 Ry

     iteration # 12     ecut=    80.00 Ry     beta= 0.40
     Davidson diagonalization with overlap
     ethr =  2.34E-07,  avg # of iterations =  2.0

     total cpu time spent up to now is      238.0 secs

     total energy              =     -31.69003040 Ry
     Harris-Foulkes estimate   =     -31.69003186 Ry
     estimated scf accuracy    <       0.00000303 Ry

     iteration # 13     ecut=    80.00 Ry     beta= 0.40
     Davidson diagonalization with overlap
     ethr =  1.44E-08,  avg # of iterations =  5.0

     total cpu time spent up to now is      239.8 secs

     total energy              =     -31.69003166 Ry
     Harris-Foulkes estimate   =     -31.69003345 Ry
     estimated scf accuracy    <       0.00000712 Ry

     iteration # 14     ecut=    80.00 Ry     beta= 0.40
     Davidson diagonalization with overlap
     ethr =  1.44E-08,  avg # of iterations =  4.0

     total cpu time spent up to now is      240.8 secs

     End of self-consistent calculation

          k = 0.0000 0.0000 0.0000 (111965 PWs)   bands (ev):

    -9.6446  -7.8584  -7.8577  -7.4280  -6.6173  -6.6168  -4.9486  -3.7892
    -2.9679  -2.5023  -2.5021  -2.0524  -2.0519  -1.6662  -0.9081

     the Fermi energy is    -2.3928 ev

!    total energy              =     -31.69003222 Ry
     Harris-Foulkes estimate   =     -31.69003232 Ry
     estimated scf accuracy    <       0.00000040 Ry

     The total energy is the sum of the following terms:

     one-electron contribution =    -107.35627783 Ry
     hartree contribution      =      55.78306313 Ry
     xc contribution           =     -13.72266859 Ry
     ewald contribution        =      33.63154482 Ry
     smearing contrib. (-TS)   =      -0.02569374 Ry

     convergence has been achieved in  14 iterations

     Forces acting on atoms (cartesian axes, Ry/au):

     atom    1 type  1   force =    -0.00000000   -0.00001865    0.00000000
     atom    2 type  1   force =     0.01656031   -0.00968868    0.00000000
     atom    3 type  1   force =    -0.00000000   -0.00686134    0.00000000
     atom    4 type  1   force =    -0.01656031   -0.00968868    0.00000000
     atom    5 type  1   force =     0.00597030    0.00351151    0.00000000
     atom    6 type  1   force =     0.00000000    0.01923433    0.00000000
     atom    7 type  1   force =    -0.00597030    0.00351151    0.00000000

     Total force =     0.035344     Total SCF correction =     0.000320


     Computing stress (Cartesian axis) and pressure

          total   stress  (Ry/bohr**3)                   (kbar)     P=   -2.97
  -0.00003028  -0.00000000   0.00000000         -4.45     -0.00      0.00
  -0.00000000  -0.00003014   0.00000000         -0.00     -4.43      0.00
   0.00000000   0.00000000  -0.00000006          0.00      0.00     -0.01


     number of scf cycles    =   9
     number of bfgs steps    =   8

     enthalpy old            =     -31.6869150283 Ry
     enthalpy new            =     -31.6900322162 Ry

     CASE: enthalpy_new < enthalpy_old

     new trust radius        =       0.2582821765 bohr
     new conv_thr            =       0.0000010000 Ry

     new unit-cell volume =   8590.09117 a.u.^3 (  1272.92016 Ang^3 )
     density =      0.27378 g/cm^3

CELL_PARAMETERS (alat= 16.84048341)
   0.961933213  -0.000000000   0.000000000
  -0.480966607   0.833134043   0.000000000
   0.000000000   0.000000000   2.244265901

ATOMIC_POSITIONS (angstrom)
Al       0.000000564   2.474891056   0.000000000
Al       2.160626878   1.227182930   0.000000000
Al       4.286201453   2.874860995   0.000000000
Al       6.411808596   1.227200435   0.000000000
Al      -2.490322031   5.987527194   0.000000000
Al       0.000030877   4.969608043   0.000000000
Al       2.490351217   5.987544699   0.000000000



     Writing output data file 8al_planar_2x2_vcr.save/
     NEW-OLD atomic charge density approx. for the potential

     negative rho (up, down):  1.742E-05 0.000E+00
     extrapolated charge   20.41197, renormalised to   21.00000

     total cpu time spent up to now is      256.3 secs

     Self-consistent Calculation

     iteration #  1     ecut=    80.00 Ry     beta= 0.40
     Davidson diagonalization with overlap
     ethr =  1.00E-06,  avg # of iterations = 11.0

     negative rho (up, down):  1.064E-05 0.000E+00

     total cpu time spent up to now is      258.8 secs

     total energy              =     -31.66287225 Ry
     Harris-Foulkes estimate   =     -34.49000008 Ry
     estimated scf accuracy    <       0.03139627 Ry

     iteration #  2     ecut=    80.00 Ry     beta= 0.40
     Davidson diagonalization with overlap
     ethr =  1.50E-04,  avg # of iterations =  4.0

     negative rho (up, down):  8.947E-06 0.000E+00

     total cpu time spent up to now is      260.0 secs

     total energy              =     -31.68920494 Ry
     Harris-Foulkes estimate   =     -31.71055949 Ry
     estimated scf accuracy    <       0.10694171 Ry

     iteration #  3     ecut=    80.00 Ry     beta= 0.40
     Davidson diagonalization with overlap
     ethr =  1.50E-04,  avg # of iterations =  2.0

     negative rho (up, down):  7.292E-06 0.000E+00

     total cpu time spent up to now is      260.9 secs

     total energy              =     -31.69367187 Ry
     Harris-Foulkes estimate   =     -31.69535390 Ry
     estimated scf accuracy    <       0.01640610 Ry

     iteration #  4     ecut=    80.00 Ry     beta= 0.40
     Davidson diagonalization with overlap
     ethr =  7.81E-05,  avg # of iterations =  1.0

     negative rho (up, down):  2.912E-06 0.000E+00

     total cpu time spent up to now is      262.0 secs

     total energy              =     -31.69165231 Ry
     Harris-Foulkes estimate   =     -31.69404950 Ry
     estimated scf accuracy    <       0.00928032 Ry

     iteration #  5     ecut=    80.00 Ry     beta= 0.40
     Davidson diagonalization with overlap
     ethr =  4.42E-05,  avg # of iterations =  4.0

     negative rho (up, down):  2.474E-06 0.000E+00

     total cpu time spent up to now is      263.3 secs

     total energy              =     -31.69318097 Ry
     Harris-Foulkes estimate   =     -31.69327092 Ry
     estimated scf accuracy    <       0.00058987 Ry

     iteration #  6     ecut=    80.00 Ry     beta= 0.40
     Davidson diagonalization with overlap
     ethr =  2.81E-06,  avg # of iterations =  5.0

     negative rho (up, down):  1.580E-06 0.000E+00

     total cpu time spent up to now is      264.5 secs

     total energy              =     -31.69323461 Ry
     Harris-Foulkes estimate   =     -31.69331525 Ry
     estimated scf accuracy    <       0.00030702 Ry

     iteration #  7     ecut=    80.00 Ry     beta= 0.40
     Davidson diagonalization with overlap
     ethr =  1.46E-06,  avg # of iterations =  5.0

     negative rho (up, down):  2.165E-07 0.000E+00

     total cpu time spent up to now is      265.9 secs

     total energy              =     -31.69310722 Ry
     Harris-Foulkes estimate   =     -31.69338640 Ry
     estimated scf accuracy    <       0.00069885 Ry

     iteration #  8     ecut=    80.00 Ry     beta= 0.40
     Davidson diagonalization with overlap
     ethr =  1.46E-06,  avg # of iterations =  5.0

     negative rho (up, down):  5.309E-08 0.000E+00

     total cpu time spent up to now is      267.0 secs

     total energy              =     -31.69329328 Ry
     Harris-Foulkes estimate   =     -31.69330952 Ry
     estimated scf accuracy    <       0.00017182 Ry

     iteration #  9     ecut=    80.00 Ry     beta= 0.40
     Davidson diagonalization with overlap
     ethr =  8.18E-07,  avg # of iterations =  1.0

     negative rho (up, down):  2.367E-08 0.000E+00

     total cpu time spent up to now is      267.9 secs

     total energy              =     -31.69324725 Ry
     Harris-Foulkes estimate   =     -31.69329603 Ry
     estimated scf accuracy    <       0.00012085 Ry

     iteration # 10     ecut=    80.00 Ry     beta= 0.40
     Davidson diagonalization with overlap
     ethr =  5.75E-07,  avg # of iterations =  4.0

     total cpu time spent up to now is      269.1 secs

     total energy              =     -31.69327309 Ry
     Harris-Foulkes estimate   =     -31.69327559 Ry
     estimated scf accuracy    <       0.00000887 Ry

     iteration # 11     ecut=    80.00 Ry     beta= 0.40
     Davidson diagonalization with overlap
     ethr =  4.22E-08,  avg # of iterations =  3.0

     total cpu time spent up to now is      270.6 secs

     total energy              =     -31.69327394 Ry
     Harris-Foulkes estimate   =     -31.69327480 Ry
     estimated scf accuracy    <       0.00000190 Ry

     iteration # 12     ecut=    80.00 Ry     beta= 0.40
     Davidson diagonalization with overlap
     ethr =  9.03E-09,  avg # of iterations =  5.0

     total cpu time spent up to now is      271.8 secs

     total energy              =     -31.69327453 Ry
     Harris-Foulkes estimate   =     -31.69327496 Ry
     estimated scf accuracy    <       0.00000147 Ry

     iteration # 13     ecut=    80.00 Ry     beta= 0.40
     Davidson diagonalization with overlap
     ethr =  7.01E-09,  avg # of iterations =  3.0

     total cpu time spent up to now is      272.7 secs

     End of self-consistent calculation

          k = 0.0000 0.0000 0.0000 (111965 PWs)   bands (ev):

    -9.6879  -7.7702  -7.7692  -7.4593  -6.6436  -6.6427  -5.3336  -3.8171
    -2.7895  -2.3804  -2.3800  -1.9663  -1.9657  -1.6918  -0.9061

     the Fermi energy is    -2.2834 ev

!    total energy              =     -31.69327457 Ry
     Harris-Foulkes estimate   =     -31.69327467 Ry
     estimated scf accuracy    <       0.00000014 Ry

     The total energy is the sum of the following terms:

     one-electron contribution =    -109.75844766 Ry
     hartree contribution      =      56.99018370 Ry
     xc contribution           =     -13.72241972 Ry
     ewald contribution        =      34.82999522 Ry
     smearing contrib. (-TS)   =      -0.03258611 Ry

     convergence has been achieved in  13 iterations

     Forces acting on atoms (cartesian axes, Ry/au):

     atom    1 type  1   force =    -0.00000000   -0.00001149    0.00000000
     atom    2 type  1   force =     0.02027443   -0.01193364    0.00000000
     atom    3 type  1   force =    -0.00000000   -0.01235586    0.00000000
     atom    4 type  1   force =    -0.02027443   -0.01193364    0.00000000
     atom    5 type  1   force =     0.01068802    0.00634479    0.00000000
     atom    6 type  1   force =     0.00000000    0.02354506    0.00000000
     atom    7 type  1   force =    -0.01068802    0.00634479    0.00000000

     Total force =     0.046075     Total SCF correction =     0.000238


     Computing stress (Cartesian axis) and pressure

          total   stress  (Ry/bohr**3)                   (kbar)     P=   -3.51
  -0.00003594   0.00000000   0.00000000         -5.29      0.00      0.00
   0.00000000  -0.00003562   0.00000000          0.00     -5.24      0.00
   0.00000000   0.00000000   0.00000004          0.00      0.00      0.01


     number of scf cycles    =  10
     number of bfgs steps    =   9

     enthalpy old            =     -31.6900322162 Ry
     enthalpy new            =     -31.6932745661 Ry

     CASE: enthalpy_new < enthalpy_old

     new trust radius        =       0.2841155758 bohr
     new conv_thr            =       0.0000010000 Ry

     new unit-cell volume =   8329.20259 a.u.^3 (  1234.26047 Ang^3 )
     density =      0.28236 g/cm^3

CELL_PARAMETERS (alat= 16.84048341)
   0.947189357  -0.000000000   0.000000000
  -0.473594678   0.820405652   0.000000000
   0.000000000   0.000000000   2.244265901

ATOMIC_POSITIONS (angstrom)
Al       0.000000555   2.437134977   0.000000000
Al       2.151695243   1.194214250   0.000000000
Al       4.220505480   2.954430288   0.000000000
Al       6.289347787   1.194231488   0.000000000
Al      -2.559404577   5.834556916   0.000000000
Al       0.000030404   4.921567742   0.000000000
Al       2.559433316   5.834574153   0.000000000



     Writing output data file 8al_planar_2x2_vcr.save/
     NEW-OLD atomic charge density approx. for the potential

     negative rho (up, down):  1.454E-05 0.000E+00
     extrapolated charge   20.34277, renormalised to   21.00000

     total cpu time spent up to now is      288.1 secs

     Self-consistent Calculation

     iteration #  1     ecut=    80.00 Ry     beta= 0.40
     Davidson diagonalization with overlap
     ethr =  1.00E-06,  avg # of iterations = 12.0

     negative rho (up, down):  8.935E-06 0.000E+00

     total cpu time spent up to now is      290.2 secs

     total energy              =     -31.66222417 Ry
     Harris-Foulkes estimate   =     -34.91083791 Ry
     estimated scf accuracy    <       0.03418719 Ry

     iteration #  2     ecut=    80.00 Ry     beta= 0.40
     Davidson diagonalization with overlap
     ethr =  1.63E-04,  avg # of iterations =  4.0

     negative rho (up, down):  7.459E-06 0.000E+00

     total cpu time spent up to now is      291.4 secs

     total energy              =     -31.69446683 Ry
     Harris-Foulkes estimate   =     -31.71354004 Ry
     estimated scf accuracy    <       0.09261246 Ry

     iteration #  3     ecut=    80.00 Ry     beta= 0.40
     Davidson diagonalization with overlap
     ethr =  1.63E-04,  avg # of iterations =  2.0

     negative rho (up, down):  6.114E-06 0.000E+00

     total cpu time spent up to now is      292.3 secs

     total energy              =     -31.69822549 Ry
     Harris-Foulkes estimate   =     -31.69990012 Ry
     estimated scf accuracy    <       0.01613743 Ry

     iteration #  4     ecut=    80.00 Ry     beta= 0.40
     Davidson diagonalization with overlap
     ethr =  7.68E-05,  avg # of iterations =  1.0

     negative rho (up, down):  2.189E-06 0.000E+00

     total cpu time spent up to now is      293.1 secs

     total energy              =     -31.69573354 Ry
     Harris-Foulkes estimate   =     -31.69854487 Ry
     estimated scf accuracy    <       0.00967352 Ry

     iteration #  5     ecut=    80.00 Ry     beta= 0.40
     Davidson diagonalization with overlap
     ethr =  4.61E-05,  avg # of iterations =  4.0

     negative rho (up, down):  1.956E-06 0.000E+00

     total cpu time spent up to now is      294.1 secs

     total energy              =     -31.69723054 Ry
     Harris-Foulkes estimate   =     -31.69729688 Ry
     estimated scf accuracy    <       0.00039145 Ry

     iteration #  6     ecut=    80.00 Ry     beta= 0.40
     Davidson diagonalization with overlap
     ethr =  1.86E-06,  avg # of iterations =  5.0

     negative rho (up, down):  6.441E-07 0.000E+00

     total cpu time spent up to now is      295.3 secs

[...]

     negative rho (up, down):  5.277E-08 0.000E+00

     total cpu time spent up to now is     6100.0 secs

     total energy              =     -31.73490368 Ry
     Harris-Foulkes estimate   =     -31.73491098 Ry
     estimated scf accuracy    <       0.00001833 Ry

     iteration #  4     ecut=    80.00 Ry     beta= 0.40
     Davidson diagonalization with overlap
     ethr =  8.73E-08,  avg # of iterations =  2.0

     total cpu time spent up to now is     6101.0 secs

     End of self-consistent calculation

          k = 0.0000 0.0000 0.0000 (111965 PWs)   bands (ev):

   -10.5582  -7.9875  -7.9762  -7.9733  -7.0134  -6.8577  -6.8496  -4.3092
    -2.1179  -2.0295  -2.0101  -1.8452  -1.8405  -1.8201  -0.9910

     the Fermi energy is    -2.0101 ev

!    total energy              =     -31.73490692 Ry
     Harris-Foulkes estimate   =     -31.73490693 Ry
     estimated scf accuracy    <       0.00000015 Ry

     The total energy is the sum of the following terms:

     one-electron contribution =    -128.79875453 Ry
     hartree contribution      =      66.43473104 Ry
     xc contribution           =     -13.95097163 Ry
     ewald contribution        =      44.65046626 Ry
     smearing contrib. (-TS)   =      -0.07037805 Ry

     convergence has been achieved in   4 iterations

     Forces acting on atoms (cartesian axes, Ry/au):

     atom    1 type  1   force =     0.00000000    0.00057175    0.00000000
     atom    2 type  1   force =    -0.00622551    0.00405604    0.00000000
     atom    3 type  1   force =    -0.00000000   -0.00753247    0.00000000
     atom    4 type  1   force =     0.00622551    0.00405604    0.00000000
     atom    5 type  1   force =     0.00565580    0.00354230    0.00000000
     atom    6 type  1   force =    -0.00000000   -0.00823598    0.00000000
     atom    7 type  1   force =    -0.00565580    0.00354230    0.00000000

     Total force =     0.018011     Total SCF correction =     0.000159


     Computing stress (Cartesian axis) and pressure

          total   stress  (Ry/bohr**3)                   (kbar)     P=   -1.90
  -0.00002268  -0.00000000  -0.00000000         -3.34     -0.00     -0.00
  -0.00000000  -0.00001596  -0.00000000         -0.00     -2.35     -0.00
   0.00000000   0.00000000  -0.00000009          0.00      0.00     -0.01


     number of scf cycles    = 297
     number of bfgs steps    =  18

     enthalpy old            =     -31.7353181298 Ry
     enthalpy new            =     -31.7349069194 Ry

     CASE: enthalpy_new > enthalpy_old

     new trust radius        =       0.0022546906 bohr
     new conv_thr            =       0.0000005973 Ry

     new unit-cell volume =   7240.82982 a.u.^3 (  1072.98026 Ang^3 )
     density =      0.32480 g/cm^3

CELL_PARAMETERS (alat= 16.84048341)
   0.882588416  -0.000000000   0.000000000
  -0.441294208   0.765406499   0.000000000
   0.000000000   0.000000000   2.244265901

ATOMIC_POSITIONS (angstrom)
Al       0.000000517   2.275583413   0.000000000
Al       2.236261071   0.979164590   0.000000000
Al       3.932655301   2.954726225   0.000000000
Al       5.629079414   0.979180672   0.000000000
Al      -2.558778552   5.345195376   0.000000000
Al       0.000028330   4.857860699   0.000000000
Al       2.558805330   5.345211458   0.000000000



     Writing output data file 8al_planar_2x2_vcr.save/
     NEW-OLD atomic charge density approx. for the potential

     negative rho (up, down):  2.853E-07 0.000E+00
     extrapolated charge   21.01670, renormalised to   21.00000

     total cpu time spent up to now is     6117.5 secs

     Self-consistent Calculation

     iteration #  1     ecut=    80.00 Ry     beta= 0.40
     Davidson diagonalization with overlap
     ethr =  1.00E-06,  avg # of iterations =  4.0

     negative rho (up, down):  1.472E-07 0.000E+00

     total cpu time spent up to now is     6118.8 secs

     total energy              =     -31.73454348 Ry
     Harris-Foulkes estimate   =     -31.63980935 Ry
     estimated scf accuracy    <       0.00007807 Ry

     iteration #  2     ecut=    80.00 Ry     beta= 0.40
     Davidson diagonalization with overlap
     ethr =  3.72E-07,  avg # of iterations =  3.0

     negative rho (up, down):  1.055E-07 0.000E+00

     total cpu time spent up to now is     6119.9 secs

     total energy              =     -31.73459512 Ry
     Harris-Foulkes estimate   =     -31.73460675 Ry
     estimated scf accuracy    <       0.00004687 Ry

     iteration #  3     ecut=    80.00 Ry     beta= 0.40
     Davidson diagonalization with overlap
     ethr =  2.23E-07,  avg # of iterations =  1.0

     negative rho (up, down):  3.846E-08 0.000E+00

     total cpu time spent up to now is     6120.9 secs

     total energy              =     -31.73459323 Ry
     Harris-Foulkes estimate   =     -31.73459751 Ry
     estimated scf accuracy    <       0.00001053 Ry

     iteration #  4     ecut=    80.00 Ry     beta= 0.40
     Davidson diagonalization with overlap
     ethr =  5.02E-08,  avg # of iterations =  2.0

     total cpu time spent up to now is     6121.8 secs

     End of self-consistent calculation

          k = 0.0000 0.0000 0.0000 (111965 PWs)   bands (ev):

   -10.5566  -7.9896  -7.9752  -7.9735  -7.0173  -6.8550  -6.8456  -4.3083
    -2.1147  -2.0310  -2.0128  -1.8446  -1.8413  -1.8226  -1.0070

     the Fermi energy is    -2.0105 ev

!    total energy              =     -31.73459505 Ry
     Harris-Foulkes estimate   =     -31.73459510 Ry
     estimated scf accuracy    <       0.00000009 Ry

     The total energy is the sum of the following terms:

     one-electron contribution =    -128.69018792 Ry
     hartree contribution      =      66.37852975 Ry
     xc contribution           =     -13.94743198 Ry
     ewald contribution        =      44.59482741 Ry
     smearing contrib. (-TS)   =      -0.07033233 Ry

     convergence has been achieved in   4 iterations

     Forces acting on atoms (cartesian axes, Ry/au):

     atom    1 type  1   force =     0.00000000    0.00059301    0.00000000
     atom    2 type  1   force =    -0.00671844    0.00453507    0.00000000
     atom    3 type  1   force =    -0.00000000   -0.00800452    0.00000000
     atom    4 type  1   force =     0.00671844    0.00453507    0.00000000
     atom    5 type  1   force =     0.00615869    0.00361597    0.00000000
     atom    6 type  1   force =    -0.00000000   -0.00889058    0.00000000
     atom    7 type  1   force =    -0.00615869    0.00361597    0.00000000

     Total force =     0.019414     Total SCF correction =     0.000174


     Computing stress (Cartesian axis) and pressure

          total   stress  (Ry/bohr**3)                   (kbar)     P=   -2.02
  -0.00002386  -0.00000000   0.00000000         -3.51     -0.00      0.00
  -0.00000000  -0.00001753   0.00000000         -0.00     -2.58      0.00
   0.00000000   0.00000000   0.00000012          0.00      0.00      0.02


     number of scf cycles    = 298
     number of bfgs steps    =  18

     enthalpy old            =     -31.7353181298 Ry
     enthalpy new            =     -31.7345950505 Ry

     CASE: enthalpy_new > enthalpy_old

     new trust radius        =       0.0001070900 bohr
     new conv_thr            =       0.0000005973 Ry

     new unit-cell volume =   7242.42535 a.u.^3 (  1073.21670 Ang^3 )
     density =      0.32473 g/cm^3

CELL_PARAMETERS (alat= 16.84048341)
   0.882699784  -0.000000000   0.000000000
  -0.441349892   0.765478566   0.000000000
   0.000000000   0.000000000   2.244265901

ATOMIC_POSITIONS (angstrom)
Al       0.000000517   2.275731691   0.000000000
Al       2.237023362   0.978853722   0.000000000
Al       3.933151538   2.955679136   0.000000000
Al       5.629309599   0.978869805   0.000000000
Al      -2.559607318   5.345458363   0.000000000
Al       0.000028334   4.858996076   0.000000000
Al       2.559634100   5.345474446   0.000000000



     Writing output data file 8al_planar_2x2_vcr.save/
     NEW-OLD atomic charge density approx. for the potential

     negative rho (up, down):  5.394E-08 0.000E+00
     extrapolated charge   21.00462, renormalised to   21.00000

     total cpu time spent up to now is     6138.3 secs

     Self-consistent Calculation

     iteration #  1     ecut=    80.00 Ry     beta= 0.40
     Davidson diagonalization with overlap
     ethr =  1.00E-06,  avg # of iterations =  2.0

     Threshold (ethr) on eigenvalues was too large:
     Diagonalizing with lowered threshold

     Davidson diagonalization with overlap
     ethr =  2.71E-08,  avg # of iterations =  4.0

     negative rho (up, down):  2.702E-08 0.000E+00

     total cpu time spent up to now is     6140.1 secs

     total energy              =     -31.73450070 Ry
     Harris-Foulkes estimate   =     -31.70827074 Ry
     estimated scf accuracy    <       0.00000789 Ry

     iteration #  2     ecut=    80.00 Ry     beta= 0.40
     Davidson diagonalization with overlap
     ethr =  3.76E-08,  avg # of iterations =  2.0

     negative rho (up, down):  1.886E-08 0.000E+00

     total cpu time spent up to now is     6141.2 secs

     total energy              =     -31.73450503 Ry
     Harris-Foulkes estimate   =     -31.73450619 Ry
     estimated scf accuracy    <       0.00000435 Ry

     iteration #  3     ecut=    80.00 Ry     beta= 0.40
     Davidson diagonalization with overlap
     ethr =  2.07E-08,  avg # of iterations =  1.0

     negative rho (up, down):  1.687E-08 0.000E+00

     total cpu time spent up to now is     6142.1 secs

     total energy              =     -31.73450527 Ry
     Harris-Foulkes estimate   =     -31.73450533 Ry
     estimated scf accuracy    <       0.00000078 Ry

     iteration #  4     ecut=    80.00 Ry     beta= 0.40
     Davidson diagonalization with overlap
     ethr =  3.70E-09,  avg # of iterations =  2.0

     total cpu time spent up to now is     6143.0 secs

     End of self-consistent calculation

          k = 0.0000 0.0000 0.0000 (111965 PWs)   bands (ev):

   -10.5582  -7.9922  -7.9769  -7.9756  -7.0203  -6.8563  -6.8466  -4.3093
    -2.1160  -2.0334  -2.0157  -1.8457  -1.8428  -1.8245  -1.0135

     the Fermi energy is    -2.0124 ev

!    total energy              =     -31.73450495 Ry
     Harris-Foulkes estimate   =     -31.73450530 Ry
     estimated scf accuracy    <       0.00000053 Ry

     The total energy is the sum of the following terms:

     one-electron contribution =    -128.66249944 Ry
     hartree contribution      =      66.36571331 Ry
     xc contribution           =     -13.94690022 Ry
     ewald contribution        =      44.57944933 Ry
     smearing contrib. (-TS)   =      -0.07026795 Ry

     convergence has been achieved in   4 iterations

     Forces acting on atoms (cartesian axes, Ry/au):

     atom    1 type  1   force =     0.00000000    0.00060471    0.00000000
     atom    2 type  1   force =    -0.00684247    0.00464070    0.00000000
     atom    3 type  1   force =    -0.00000000   -0.00818724    0.00000000
     atom    4 type  1   force =     0.00684247    0.00464070    0.00000000
     atom    5 type  1   force =     0.00627062    0.00366155    0.00000000
     atom    6 type  1   force =    -0.00000000   -0.00902196    0.00000000
     atom    7 type  1   force =    -0.00627062    0.00366155    0.00000000

     Total force =     0.019773     Total SCF correction =     0.000140


     Computing stress (Cartesian axis) and pressure

          total   stress  (Ry/bohr**3)                   (kbar)     P=   -2.04
  -0.00002410  -0.00000000   0.00000000         -3.54     -0.00      0.00
  -0.00000000  -0.00001789   0.00000000         -0.00     -2.63      0.00
   0.00000000   0.00000000   0.00000035          0.00      0.00      0.05


     number of scf cycles    = 299
     number of bfgs steps    =  18

     enthalpy old            =     -31.7353181298 Ry
     enthalpy new            =     -31.7345049543 Ry

     CASE: enthalpy_new > enthalpy_old

     new trust radius        =       0.0000002363 bohr

     trust_radius < trust_radius_min

     resetting bfgs history

     new conv_thr            =       0.0000005973 Ry

     new unit-cell volume =   7235.06854 a.u.^3 (  1072.12653 Ang^3 )
     density =      0.32506 g/cm^3

CELL_PARAMETERS (alat= 16.84048341)
   0.882186176  -0.000000000   0.000000000
  -0.441093088   0.765146207   0.000000000
   0.000000000   0.000000000   2.244265901

ATOMIC_POSITIONS (angstrom)
Al       0.000000517   2.275047759   0.000000000
Al       2.233508832   0.980286754   0.000000000
Al       3.930862992   2.951285557   0.000000000
Al       5.628247021   0.980302830   0.000000000
Al      -2.555786274   5.344245141   0.000000000
Al       0.000028317   4.853761007   0.000000000
Al       2.555813040   5.344261217   0.000000000



     Writing output data file 8al_planar_2x2_vcr.save/
     NEW-OLD atomic charge density approx. for the potential

     negative rho (up, down):  3.880E-07 0.000E+00
     extrapolated charge   20.97866, renormalised to   21.00000

     total cpu time spent up to now is     6159.5 secs

     Self-consistent Calculation

     iteration #  1     ecut=    80.00 Ry     beta= 0.40
     Davidson diagonalization with overlap
     ethr =  1.00E-06,  avg # of iterations =  5.0

     negative rho (up, down):  2.055E-07 0.000E+00

     total cpu time spent up to now is     6160.8 secs

     total energy              =     -31.73483282 Ry
     Harris-Foulkes estimate   =     -31.85610781 Ry
     estimated scf accuracy    <       0.00010058 Ry

     iteration #  2     ecut=    80.00 Ry     beta= 0.40
     Davidson diagonalization with overlap
     ethr =  4.79E-07,  avg # of iterations =  2.0

     negative rho (up, down):  1.506E-07 0.000E+00

     total cpu time spent up to now is     6161.9 secs

     total energy              =     -31.73490762 Ry
     Harris-Foulkes estimate   =     -31.73492475 Ry
     estimated scf accuracy    <       0.00007359 Ry

     iteration #  3     ecut=    80.00 Ry     beta= 0.40
     Davidson diagonalization with overlap
     ethr =  3.50E-07,  avg # of iterations =  1.0

     negative rho (up, down):  5.272E-08 0.000E+00

     total cpu time spent up to now is     6162.8 secs

     total energy              =     -31.73490362 Ry
     Harris-Foulkes estimate   =     -31.73491100 Ry
     estimated scf accuracy    <       0.00001849 Ry

     iteration #  4     ecut=    80.00 Ry     beta= 0.40
     Davidson diagonalization with overlap
     ethr =  8.80E-08,  avg # of iterations =  2.0

     total cpu time spent up to now is     6163.7 secs

     End of self-consistent calculation

          k = 0.0000 0.0000 0.0000 (111965 PWs)   bands (ev):

   -10.5583  -7.9875  -7.9763  -7.9734  -7.0135  -6.8577  -6.8497  -4.3092
    -2.1180  -2.0295  -2.0101  -1.8452  -1.8406  -1.8201  -0.9911

     the Fermi energy is    -2.0101 ev

!    total energy              =     -31.73490692 Ry
     Harris-Foulkes estimate   =     -31.73490692 Ry
     estimated scf accuracy    <       0.00000015 Ry

     The total energy is the sum of the following terms:

     one-electron contribution =    -128.79864762 Ry
     hartree contribution      =      66.43460715 Ry
     xc contribution           =     -13.95095563 Ry
     ewald contribution        =      44.65046626 Ry
     smearing contrib. (-TS)   =      -0.07037708 Ry

     convergence has been achieved in   4 iterations

     Forces acting on atoms (cartesian axes, Ry/au):

     atom    1 type  1   force =     0.00000000    0.00054956    0.00000000
     atom    2 type  1   force =    -0.00623783    0.00405982    0.00000000
     atom    3 type  1   force =    -0.00000000   -0.00752339    0.00000000
     atom    4 type  1   force =     0.00623783    0.00405982    0.00000000
     atom    5 type  1   force =     0.00565411    0.00354682    0.00000000
     atom    6 type  1   force =    -0.00000000   -0.00823947    0.00000000
     atom    7 type  1   force =    -0.00565411    0.00354682    0.00000000

     Total force =     0.018019     Total SCF correction =     0.000152


     Computing stress (Cartesian axis) and pressure

          total   stress  (Ry/bohr**3)                   (kbar)     P=   -1.90
  -0.00002268  -0.00000000   0.00000000         -3.34     -0.00      0.00
  -0.00000000  -0.00001595   0.00000000         -0.00     -2.35      0.00
   0.00000000   0.00000000  -0.00000011          0.00      0.00     -0.02


     number of scf cycles    = 300
     number of bfgs steps    =  18

     enthalpy old            =     -31.7353181298 Ry
     enthalpy new            =     -31.7349069163 Ry

     CASE: enthalpy_new > enthalpy_old

     new trust radius        =       0.0022546813 bohr
     new conv_thr            =       0.0000005973 Ry

     new unit-cell volume =   7240.82983 a.u.^3 (  1072.98027 Ang^3 )
     density =      0.32480 g/cm^3

CELL_PARAMETERS (alat= 16.84048341)
   0.882588416  -0.000000000   0.000000000
  -0.441294208   0.765406500   0.000000000
   0.000000000   0.000000000   2.244265901

ATOMIC_POSITIONS (angstrom)
Al       0.000000517   2.275583413   0.000000000
Al       2.236261074   0.979164589   0.000000000
Al       3.932655303   2.954726229   0.000000000
Al       5.629079415   0.979180671   0.000000000
Al      -2.558778555   5.345195377   0.000000000
Al       0.000028330   4.857860704   0.000000000
Al       2.558805334   5.345211459   0.000000000



     Writing output data file 8al_planar_2x2_vcr.save/
     NEW-OLD atomic charge density approx. for the potential

     negative rho (up, down):  2.857E-07 0.000E+00
     extrapolated charge   21.01670, renormalised to   21.00000

     Writing output data file 8al_planar_2x2_vcr.save/
 
     init_run     :      5.17s CPU      5.38s WALL (       1 calls)
     electrons    :   1483.64s CPU   1514.44s WALL (     300 calls)
     update_pot   :   1737.99s CPU   1747.47s WALL (     300 calls)
     forces       :    932.56s CPU    937.28s WALL (     300 calls)
     stress       :   1909.63s CPU   1932.82s WALL (     300 calls)

     Called by init_run:
     wfcinit      :      0.37s CPU      0.39s WALL (       1 calls)
     potinit      :      1.82s CPU      1.89s WALL (       1 calls)
     hinit0       :      2.70s CPU      2.80s WALL (       1 calls)

     Called by electrons:
     c_bands      :    997.17s CPU   1009.93s WALL (    1448 calls)
     sum_band     :    177.95s CPU    181.56s WALL (    1448 calls)
     v_of_rho     :    319.65s CPU    323.55s WALL (    1657 calls)
     mix_rho      :     32.90s CPU     33.40s WALL (    1448 calls)

     Called by c_bands:
     init_us_2    :     30.96s CPU     31.20s WALL (    2897 calls)
     cegterg      :    747.02s CPU    757.53s WALL (    1448 calls)

     Called by sum_band:

     Called by *egterg:
     h_psi        :    661.83s CPU    671.89s WALL (    5194 calls)
     g_psi        :      5.73s CPU      5.76s WALL (    3745 calls)
     cdiaghg      :      2.78s CPU      2.82s WALL (    4802 calls)

     Called by h_psi:
     h_psi:pot    :    659.54s CPU    669.54s WALL (    5194 calls)
     h_psi:calbec :     71.42s CPU     71.83s WALL (    5194 calls)
     vloc_psi     :    514.53s CPU    523.73s WALL (    5194 calls)
     add_vuspsi   :     73.53s CPU     73.94s WALL (    5194 calls)

     General routines
     calbec       :     97.33s CPU     98.00s WALL (    6694 calls)
     fft          :    383.28s CPU    389.39s WALL (   24464 calls)
     ffts         :     12.60s CPU     12.94s WALL (    1448 calls)
     fftw         :    537.87s CPU    548.17s WALL (  134866 calls)
 
     Parallel routines
     fft_scatt_xy :    124.05s CPU    124.95s WALL (  160778 calls)
     fft_scatt_yz :    413.33s CPU    425.27s WALL (  160778 calls)
 
     PWSCF        :     1h41m CPU       41h 1m WALL

      43h
 
   This run was terminated on:  13:10:23  25Nov2020            

=------------------------------------------------------------------------------=
   JOB DONE.
=------------------------------------------------------------------------------=
