
     Program PWSCF v.6.3MaX starts on 26Nov2020 at  0:34:24 

     This program is part of the open-source Quantum ESPRESSO suite
     for quantum simulation of materials; please cite
         "P. Giannozzi et al., J. Phys.:Condens. Matter 21 395502 (2009);
         "P. Giannozzi et al., J. Phys.:Condens. Matter 29 465901 (2017);
          URL http://www.quantum-espresso.org", 
     in publications or presentations arising from this work. More details at
     http://www.quantum-espresso.org/quote

     Parallel version (MPI), running on     8 processors

     MPI processes distributed on     2 nodes
     R & G space division:  proc/nbgrp/npool/nimage =       8
     Waiting for input...
     Reading input from standard input

     Current dimensions of program PWSCF are:
     Max number of different atomic species (ntypx) = 10
     Max number of k-points (npk) =  40000
     Max angular momentum in pseudopotentials (lmaxx) =  3

     Subspace diagonalization in iterative solution of the eigenvalue problem:
     a serial algorithm will be used

 
     Parallelization info
     --------------------
     sticks:   dense  smooth     PW     G-vecs:    dense   smooth      PW
     Min        3123    3123    778               448599   448599   56048
     Max        3124    3124    779               448604   448604   56052
     Sum       24985   24985   6229              3588803  3588803  448403
 


     bravais-lattice index     =            4
     lattice parameter (alat)  =      33.6810  a.u.
     unit-cell volume          =   37130.3117 (a.u.)^3
     number of atoms/cell      =           31
     number of atomic types    =            1
     number of electrons       =        93.00
     number of Kohn-Sham states=           56
     kinetic-energy cutoff     =      80.0000  Ry
     charge density cutoff     =     320.0000  Ry
     convergence threshold     =      1.0E-06
     mixing beta               =       0.4000
     number of iterations used =            8  plain     mixing
     Exchange-correlation      = PBE ( 1  4  3  4 0 0)
     nstep                     =          300


     celldm(1)=  33.680967  celldm(2)=   0.000000  celldm(3)=   1.122133
     celldm(4)=   0.000000  celldm(5)=   0.000000  celldm(6)=   0.000000

     crystal axes: (cart. coord. in units of alat)
               a(1) = (   1.000000   0.000000   0.000000 )  
               a(2) = (  -0.500000   0.866025   0.000000 )  
               a(3) = (   0.000000   0.000000   1.122133 )  

     reciprocal axes: (cart. coord. in units 2 pi/alat)
               b(1) = (  1.000000  0.577350  0.000000 )  
               b(2) = (  0.000000  1.154701  0.000000 )  
               b(3) = (  0.000000  0.000000  0.891160 )  


     PseudoPot. # 1 for Al read from file:
     ./Al.upf
     MD5 check sum: 4974d48a734c9d7d1eb6780a1419d19d
     Pseudo is Norm-conserving + core correction, Zval =  3.0
     Generated using ONCVPSP code by D. R. Hamann
     Using radial grid of 1876 points,  6 beta functions with: 
                l(1) =   0
                l(2) =   0
                l(3) =   1
                l(4) =   1
                l(5) =   2
                l(6) =   2

     atomic species   valence    mass     pseudopotential
        Al             3.00    29.98200     Al( 1.00)

      2 Sym. Ops. (no inversion) found



   Cartesian axes

     site n.     atom                  positions (alat units)
         1           Al  tau(   1) = (  -0.0000000   0.1443393   0.0000000  )
         2           Al  tau(   2) = (   0.1250015   0.0721696   0.0000000  )
         3           Al  tau(   3) = (  -0.1249997   0.3608472   0.0000000  )
         4           Al  tau(   4) = (   0.0000018   0.2886775   0.0000000  )
         5           Al  tau(   5) = (  -0.2499994   0.5773550   0.0000000  )
         6           Al  tau(   6) = (  -0.1249979   0.5051854   0.0000000  )
         7           Al  tau(   7) = (  -0.3749991   0.7938629   0.0000000  )
         8           Al  tau(   8) = (  -0.2499976   0.7216932   0.0000000  )
         9           Al  tau(   9) = (   0.2500011   0.1443403   0.0000000  )
        10           Al  tau(  10) = (   0.3750027   0.0721706   0.0000000  )
        11           Al  tau(  11) = (   0.1250014   0.3608482   0.0000000  )
        12           Al  tau(  12) = (   0.2500030   0.2886785   0.0000000  )
        13           Al  tau(  13) = (   0.0000017   0.5773560   0.0000000  )
        14           Al  tau(  14) = (  -0.1249980   0.7938639   0.0000000  )
        15           Al  tau(  15) = (   0.0000036   0.7216942   0.0000000  )
        16           Al  tau(  16) = (   0.5000023   0.1443413   0.0000000  )
        17           Al  tau(  17) = (   0.6250038   0.0721717   0.0000000  )
        18           Al  tau(  18) = (   0.3750026   0.3608492   0.0000000  )
        19           Al  tau(  19) = (   0.5000041   0.2886795   0.0000000  )
        20           Al  tau(  20) = (   0.2500029   0.5773571   0.0000000  )
        21           Al  tau(  21) = (   0.3750044   0.5051874   0.0000000  )
        22           Al  tau(  22) = (   0.1250032   0.7938649   0.0000000  )
        23           Al  tau(  23) = (   0.2500047   0.7216953   0.0000000  )
        24           Al  tau(  24) = (   0.7500035   0.1443423   0.0000000  )
        25           Al  tau(  25) = (   0.8750050   0.0721727   0.0000000  )
        26           Al  tau(  26) = (   0.6250038   0.3608502   0.0000000  )
        27           Al  tau(  27) = (   0.7500053   0.2886805   0.0000000  )
        28           Al  tau(  28) = (   0.5000041   0.5773581   0.0000000  )
        29           Al  tau(  29) = (   0.6250056   0.5051884   0.0000000  )
        30           Al  tau(  30) = (   0.3750044   0.7938660   0.0000000  )
        31           Al  tau(  31) = (   0.5000059   0.7216963   0.0000000  )

     number of k points=     1  Methfessel-Paxton smearing, width (Ry)=  0.0500
                       cart. coord. in units 2pi/alat
        k(    1) = (   0.0000000   0.0000000   0.0000000), wk =   2.0000000

     Dense  grid:  3588803 G-vectors     FFT dimensions: ( 192, 192, 216)

     Estimated max dynamical RAM per process >       1.15 GB

     Estimated total dynamical RAM >       9.23 GB

     Initial potential from superposition of free atoms

     starting charge   92.92414, renormalised to   93.00000

     negative rho (up, down):  9.278E-05 0.000E+00
     Starting wfcs are  124 randomized atomic wfcs

     total cpu time spent up to now is       32.6 secs

     Self-consistent Calculation

     iteration #  1     ecut=    80.00 Ry     beta= 0.40
     Davidson diagonalization with overlap
     ethr =  1.00E-02,  avg # of iterations =  2.0

     total cpu time spent up to now is       64.9 secs

     total energy              =    -140.64214987 Ry
     Harris-Foulkes estimate   =    -141.23601578 Ry
     estimated scf accuracy    <       1.54870967 Ry

     iteration #  2     ecut=    80.00 Ry     beta= 0.40
     Davidson diagonalization with overlap
     ethr =  1.67E-03,  avg # of iterations =  5.0

     total cpu time spent up to now is      100.8 secs

     total energy              =    -140.22060636 Ry
     Harris-Foulkes estimate   =    -141.45806041 Ry
     estimated scf accuracy    <       6.72997009 Ry

     iteration #  3     ecut=    80.00 Ry     beta= 0.40
     Davidson diagonalization with overlap
     ethr =  1.67E-03,  avg # of iterations =  5.0

     total cpu time spent up to now is      132.5 secs

     total energy              =    -140.82768419 Ry
     Harris-Foulkes estimate   =    -141.02274920 Ry
     estimated scf accuracy    <       1.17011285 Ry

     iteration #  4     ecut=    80.00 Ry     beta= 0.40
     Davidson diagonalization with overlap
     ethr =  1.26E-03,  avg # of iterations =  1.0

     total cpu time spent up to now is      156.4 secs

     total energy              =    -140.89977672 Ry
     Harris-Foulkes estimate   =    -140.94416456 Ry
     estimated scf accuracy    <       0.15269050 Ry

     iteration #  5     ecut=    80.00 Ry     beta= 0.40
     Davidson diagonalization with overlap
     ethr =  1.64E-04,  avg # of iterations =  5.0

     total cpu time spent up to now is      183.2 secs

     total energy              =    -140.91278270 Ry
     Harris-Foulkes estimate   =    -140.95615994 Ry
     estimated scf accuracy    <       0.31068236 Ry

     iteration #  6     ecut=    80.00 Ry     beta= 0.40
     Davidson diagonalization with overlap
     ethr =  1.64E-04,  avg # of iterations =  3.0

     total cpu time spent up to now is      210.0 secs

     total energy              =    -140.93255864 Ry
     Harris-Foulkes estimate   =    -140.93476779 Ry
     estimated scf accuracy    <       0.00975354 Ry

     iteration #  7     ecut=    80.00 Ry     beta= 0.40
     Davidson diagonalization with overlap
     ethr =  1.05E-05,  avg # of iterations = 11.0

     total cpu time spent up to now is      250.9 secs

     total energy              =    -140.93551801 Ry
     Harris-Foulkes estimate   =    -140.93678779 Ry
     estimated scf accuracy    <       0.00620446 Ry

     iteration #  8     ecut=    80.00 Ry     beta= 0.40
     Davidson diagonalization with overlap
     ethr =  6.67E-06,  avg # of iterations =  3.0

     total cpu time spent up to now is      280.3 secs

     total energy              =    -140.93556177 Ry
     Harris-Foulkes estimate   =    -140.93676298 Ry
     estimated scf accuracy    <       0.00707240 Ry

     iteration #  9     ecut=    80.00 Ry     beta= 0.40
     Davidson diagonalization with overlap
     ethr =  6.67E-06,  avg # of iterations =  3.0

     total cpu time spent up to now is      306.7 secs

     total energy              =    -140.93588765 Ry
     Harris-Foulkes estimate   =    -140.93620193 Ry
     estimated scf accuracy    <       0.00181543 Ry

     iteration # 10     ecut=    80.00 Ry     beta= 0.40
     Davidson diagonalization with overlap
     ethr =  1.95E-06,  avg # of iterations =  3.0

     total cpu time spent up to now is      333.9 secs

     total energy              =    -140.93600184 Ry
     Harris-Foulkes estimate   =    -140.93609881 Ry
     estimated scf accuracy    <       0.00040405 Ry

     iteration # 11     ecut=    80.00 Ry     beta= 0.40
     Davidson diagonalization with overlap
     ethr =  4.34E-07,  avg # of iterations =  5.0

     total cpu time spent up to now is      367.3 secs

     total energy              =    -140.93604175 Ry
     Harris-Foulkes estimate   =    -140.93616367 Ry
     estimated scf accuracy    <       0.00081869 Ry

     iteration # 12     ecut=    80.00 Ry     beta= 0.40
     Davidson diagonalization with overlap
     ethr =  4.34E-07,  avg # of iterations =  3.0

     total cpu time spent up to now is      394.1 secs

     total energy              =    -140.93610111 Ry
     Harris-Foulkes estimate   =    -140.93610900 Ry
     estimated scf accuracy    <       0.00004144 Ry

     iteration # 13     ecut=    80.00 Ry     beta= 0.40
     Davidson diagonalization with overlap
     ethr =  4.46E-08,  avg # of iterations =  4.0

     total cpu time spent up to now is      424.2 secs

     total energy              =    -140.93610761 Ry
     Harris-Foulkes estimate   =    -140.93611079 Ry
     estimated scf accuracy    <       0.00001899 Ry

     iteration # 14     ecut=    80.00 Ry     beta= 0.40
     Davidson diagonalization with overlap
     ethr =  2.04E-08,  avg # of iterations =  3.0

     total cpu time spent up to now is      451.4 secs

     total energy              =    -140.93610820 Ry
     Harris-Foulkes estimate   =    -140.93611012 Ry
     estimated scf accuracy    <       0.00000757 Ry

     iteration # 15     ecut=    80.00 Ry     beta= 0.40
     Davidson diagonalization with overlap
     ethr =  8.14E-09,  avg # of iterations =  4.0

     total cpu time spent up to now is      479.9 secs

     total energy              =    -140.93610785 Ry
     Harris-Foulkes estimate   =    -140.93611085 Ry
     estimated scf accuracy    <       0.00002164 Ry

     iteration # 16     ecut=    80.00 Ry     beta= 0.40
     Davidson diagonalization with overlap
     ethr =  8.14E-09,  avg # of iterations =  3.0

     total cpu time spent up to now is      507.0 secs

     total energy              =    -140.93610902 Ry
     Harris-Foulkes estimate   =    -140.93610927 Ry
     estimated scf accuracy    <       0.00000112 Ry

     iteration # 17     ecut=    80.00 Ry     beta= 0.40
     Davidson diagonalization with overlap
     ethr =  1.20E-09,  avg # of iterations =  4.0

     total cpu time spent up to now is      537.5 secs

     End of self-consistent calculation

          k = 0.0000 0.0000 0.0000 (448403 PWs)   bands (ev):

    -9.9529  -9.4482  -9.4332  -9.4329  -9.4259  -9.4258  -9.1459  -8.4049
    -8.4049  -8.3882  -8.3880  -8.3797  -8.3035  -8.2569  -8.2568  -7.5866
    -6.9325  -6.9324  -6.8231  -6.4866  -6.4773  -6.4772  -6.3702  -6.3700
    -5.4641  -4.8435  -4.8433  -4.8369  -4.7358  -4.7356  -4.4781  -4.4682
    -4.4428  -4.4427  -4.1225  -4.1224  -3.9779  -3.4711  -3.4689  -3.4686
    -3.4578  -3.4576  -3.4016  -3.2745  -3.2744  -3.2224  -3.2074  -2.9744
    -2.9653  -2.9653  -2.9389  -2.5198  -2.5197  -2.4502  -2.4487  -2.4314

     the Fermi energy is    -3.0911 ev

!    total energy              =    -140.93610830 Ry
     Harris-Foulkes estimate   =    -140.93610913 Ry
     estimated scf accuracy    <       0.00000090 Ry

     The total energy is the sum of the following terms:

     one-electron contribution =    -502.03616773 Ry
     hartree contribution      =     259.76305512 Ry
     xc contribution           =     -61.33572269 Ry
     ewald contribution        =     162.75374192 Ry
     smearing contrib. (-TS)   =      -0.08101492 Ry

     convergence has been achieved in  17 iterations

     Forces acting on atoms (cartesian axes, Ry/au):

     atom    1 type  1   force =    -0.00152629    0.00522581    0.00000000
     atom    2 type  1   force =    -0.00002844   -0.00212400    0.00000000
     atom    3 type  1   force =     0.00111854    0.00069081    0.00000000
     atom    4 type  1   force =    -0.00319923   -0.00114055    0.00000000
     atom    5 type  1   force =     0.00371053   -0.00391849    0.00000000
     atom    6 type  1   force =    -0.00253554   -0.00223306    0.00000000
     atom    7 type  1   force =     0.00002203   -0.00002364    0.00000000
     atom    8 type  1   force =    -0.00184408    0.00106795    0.00000000
     atom    9 type  1   force =     0.00159882    0.00518195    0.00000000
     atom   10 type  1   force =    -0.00201105   -0.00112913    0.00000000
     atom   11 type  1   force =     0.00004172    0.01516014    0.00000000
     atom   12 type  1   force =     0.00317476   -0.00107261    0.00000000
     atom   13 type  1   force =     0.01312788   -0.00757793    0.00000000
     atom   14 type  1   force =     0.00524719   -0.00126633    0.00000000
     atom   15 type  1   force =     0.00065787    0.00330193    0.00000000
     atom   16 type  1   force =    -0.00047392   -0.00021764    0.00000000
     atom   17 type  1   force =     0.00004909    0.00132455    0.00000000
     atom   18 type  1   force =    -0.00114990    0.00068926    0.00000000
     atom   19 type  1   force =     0.00118398   -0.00067056    0.00000000
     atom   20 type  1   force =    -0.01308783   -0.00760203    0.00000000
     atom   21 type  1   force =     0.00251059   -0.00220674    0.00000000
     atom   22 type  1   force =    -0.00001892   -0.00133284    0.00000000
     atom   23 type  1   force =    -0.00060370    0.00331775    0.00000000
     atom   24 type  1   force =     0.00043349   -0.00024514    0.00000000
     atom   25 type  1   force =     0.00196586   -0.00112982    0.00000000
     atom   26 type  1   force =    -0.00004586    0.00050792    0.00000000
     atom   27 type  1   force =    -0.00112608   -0.00068800    0.00000000
     atom   28 type  1   force =    -0.00371020   -0.00397870    0.00000000
     atom   29 type  1   force =    -0.00001753    0.00230714    0.00000000
     atom   30 type  1   force =    -0.00528952   -0.00130956    0.00000000
     atom   31 type  1   force =     0.00182575    0.00109156    0.00000000

     Total force =     0.031211     Total SCF correction =     0.000766


     Computing stress (Cartesian axis) and pressure

          total   stress  (Ry/bohr**3)                   (kbar)     P=   -0.57
  -0.00000578  -0.00000002   0.00000000         -0.85     -0.00      0.00
  -0.00000002  -0.00000579   0.00000000         -0.00     -0.85      0.00
   0.00000000   0.00000000   0.00000000          0.00      0.00      0.00


     BFGS Geometry Optimization

     number of scf cycles    =   1
     number of bfgs steps    =   0

     enthalpy new            =    -140.9361082973 Ry

     new trust radius        =       0.0151601978 bohr
     new conv_thr            =       0.0000010000 Ry

     new unit-cell volume =  37119.57536 a.u.^3 (  5500.55349 Ang^3 )
     density =      0.28059 g/cm^3

CELL_PARAMETERS (alat= 33.68096681)
   0.999855476  -0.000000464   0.000000000
  -0.499928140   0.865900366   0.000000000
   0.000000000   0.000000000   1.122132950

ATOMIC_POSITIONS (angstrom)
Al      -0.000809344   2.574980727   0.000000000
Al       2.227589105   1.284982521   0.000000000
Al      -2.226984406   6.430887207   0.000000000
Al      -0.001663008   5.143808821   0.000000000
Al      -4.453187429  10.286754378   0.000000000
Al      -2.228886293   9.001536725   0.000000000
Al      -6.682713463  14.147121100   0.000000000
Al      -4.456094894  12.861589246   0.000000000
Al       4.456020976   2.574973644   0.000000000
Al       6.681716927   1.285525038   0.000000000
Al       2.227622664   6.438559066   0.000000000
Al       4.456886299   5.143860891   0.000000000
Al       0.006972121  10.284834289   0.000000000
Al      -2.224772008  14.146479715   0.000000000
Al       0.000405711  12.862787372   0.000000000
Al       8.910101111   2.572132844   0.000000000
Al      11.137983770   1.286839404   0.000000000
Al       6.682169004   6.430918638   0.000000000
Al       8.911009796   5.144089746   0.000000000
Al       4.448278192  10.284837670   0.000000000
Al       6.684137262   9.001582901   0.000000000
Al       2.227618511  14.146460654   0.000000000
Al       4.454915040  12.862811869   0.000000000
Al      13.365758048   2.572134422   0.000000000
Al      15.594174760   1.285556919   0.000000000
Al      11.137929974   6.430838819   0.000000000
Al      13.364964366   5.144096644   0.000000000
Al       8.908416724  10.286770897   0.000000000
Al      11.137976449   9.003987325   0.000000000
Al       6.680006659  14.146489095   0.000000000
Al       8.911377283  12.861650116   0.000000000



     Writing output data file 14al_planar_2x2_vcr.save/
     NEW-OLD atomic charge density approx. for the potential

     negative rho (up, down):  2.993E-07 0.000E+00
     extrapolated charge   92.97312, renormalised to   93.00000

     total cpu time spent up to now is      618.3 secs

     Self-consistent Calculation

     iteration #  1     ecut=    80.00 Ry     beta= 0.40
     Davidson diagonalization with overlap
     ethr =  1.00E-06,  avg # of iterations =  4.0

     negative rho (up, down):  1.477E-07 0.000E+00

     total cpu time spent up to now is      652.9 secs

     total energy              =    -140.93701384 Ry
     Harris-Foulkes estimate   =    -141.07012607 Ry
     estimated scf accuracy    <       0.00017182 Ry

     iteration #  2     ecut=    80.00 Ry     beta= 0.40
     Davidson diagonalization with overlap
     ethr =  1.85E-07,  avg # of iterations = 16.0

     negative rho (up, down):  1.339E-07 0.000E+00

     total cpu time spent up to now is      695.4 secs

     total energy              =    -140.93685831 Ry
     Harris-Foulkes estimate   =    -140.93730529 Ry
     estimated scf accuracy    <       0.00363628 Ry

     iteration #  3     ecut=    80.00 Ry     beta= 0.40
     Davidson diagonalization with overlap
     ethr =  1.85E-07,  avg # of iterations =  5.0

     negative rho (up, down):  1.038E-07 0.000E+00

     total cpu time spent up to now is      726.9 secs

     total energy              =    -140.93706909 Ry
     Harris-Foulkes estimate   =    -140.93707554 Ry
     estimated scf accuracy    <       0.00003350 Ry

     iteration #  4     ecut=    80.00 Ry     beta= 0.40
     Davidson diagonalization with overlap
     ethr =  3.60E-08,  avg # of iterations =  4.0

     negative rho (up, down):  8.016E-08 0.000E+00

     total cpu time spent up to now is      754.8 secs

     total energy              =    -140.93706903 Ry
     Harris-Foulkes estimate   =    -140.93707319 Ry
     estimated scf accuracy    <       0.00002081 Ry

     iteration #  5     ecut=    80.00 Ry     beta= 0.40
     Davidson diagonalization with overlap
     ethr =  2.24E-08,  avg # of iterations =  1.0

     negative rho (up, down):  3.143E-08 0.000E+00

     total cpu time spent up to now is      781.3 secs

     total energy              =    -140.93706956 Ry
     Harris-Foulkes estimate   =    -140.93707210 Ry
     estimated scf accuracy    <       0.00001433 Ry

     iteration #  6     ecut=    80.00 Ry     beta= 0.40
     Davidson diagonalization with overlap
     ethr =  1.54E-08,  avg # of iterations =  2.0

     negative rho (up, down):  1.645E-08 0.000E+00

     total cpu time spent up to now is      807.3 secs

     total energy              =    -140.93707040 Ry
     Harris-Foulkes estimate   =    -140.93707151 Ry
     estimated scf accuracy    <       0.00000492 Ry

     iteration #  7     ecut=    80.00 Ry     beta= 0.40
     Davidson diagonalization with overlap
     ethr =  5.29E-09,  avg # of iterations =  4.0

     negative rho (up, down):  1.230E-08 0.000E+00

     total cpu time spent up to now is      837.8 secs

     total energy              =    -140.93707081 Ry
     Harris-Foulkes estimate   =    -140.93707179 Ry
     estimated scf accuracy    <       0.00000771 Ry

     iteration #  8     ecut=    80.00 Ry     beta= 0.40
     Davidson diagonalization with overlap
     ethr =  5.29E-09,  avg # of iterations =  2.0

     total cpu time spent up to now is      862.9 secs

     End of self-consistent calculation

          k = 0.0000 0.0000 0.0000 (448403 PWs)   bands (ev):

    -9.9536  -9.4494  -9.4339  -9.4331  -9.4254  -9.4248  -9.1442  -8.4060
    -8.4042  -8.3849  -8.3847  -8.3808  -8.3057  -8.2544  -8.2538  -7.5861
    -6.9326  -6.9324  -6.8234  -6.4818  -6.4782  -6.4774  -6.3722  -6.3720
    -5.4689  -4.8401  -4.8399  -4.8361  -4.7367  -4.7365  -4.4776  -4.4677
    -4.4432  -4.4429  -4.1246  -4.1245  -3.9781  -3.4720  -3.4672  -3.4669
    -3.4589  -3.4579  -3.3995  -3.2742  -3.2734  -3.2213  -3.2172  -2.9707
    -2.9638  -2.9635  -2.9407  -2.5181  -2.5177  -2.4492  -2.4465  -2.4445

     the Fermi energy is    -3.0911 ev

!    total energy              =    -140.93707094 Ry
     Harris-Foulkes estimate   =    -140.93707125 Ry
     estimated scf accuracy    <       0.00000055 Ry

     The total energy is the sum of the following terms:

     one-electron contribution =    -502.12274507 Ry
     hartree contribution      =     259.80509125 Ry
     xc contribution           =     -61.33367293 Ry
     ewald contribution        =     162.79526220 Ry
     smearing contrib. (-TS)   =      -0.08100640 Ry

     convergence has been achieved in   8 iterations

     Forces acting on atoms (cartesian axes, Ry/au):

     atom    1 type  1   force =    -0.00136716    0.00468508    0.00000000
     atom    2 type  1   force =     0.00002501   -0.00168815    0.00000000
     atom    3 type  1   force =     0.00078397    0.00043191    0.00000000
     atom    4 type  1   force =    -0.00211604   -0.00059544    0.00000000
     atom    5 type  1   force =     0.00341819   -0.00330057    0.00000000
     atom    6 type  1   force =    -0.00158103   -0.00150867    0.00000000
     atom    7 type  1   force =     0.00001719   -0.00002840    0.00000000
     atom    8 type  1   force =    -0.00138663    0.00072589    0.00000000
     atom    9 type  1   force =     0.00136411    0.00463628    0.00000000
     atom   10 type  1   force =    -0.00208437   -0.00107731    0.00000000
     atom   11 type  1   force =     0.00003014    0.01495313    0.00000000
     atom   12 type  1   force =     0.00210121   -0.00054922    0.00000000
     atom   13 type  1   force =     0.01295321   -0.00747774    0.00000000
     atom   14 type  1   force =     0.00467933   -0.00136008    0.00000000
     atom   15 type  1   force =     0.00036857    0.00208925    0.00000000
     atom   16 type  1   force =    -0.00058254   -0.00029669    0.00000000
     atom   17 type  1   force =     0.00004440    0.00107591    0.00000000
     atom   18 type  1   force =    -0.00080916    0.00044499    0.00000000
     atom   19 type  1   force =     0.00092028   -0.00056461    0.00000000
     atom   20 type  1   force =    -0.01296446   -0.00744604    0.00000000
     atom   21 type  1   force =     0.00159014   -0.00153043    0.00000000
     atom   22 type  1   force =     0.00002377   -0.00078755    0.00000000
     atom   23 type  1   force =    -0.00038466    0.00208130    0.00000000
     atom   24 type  1   force =     0.00059413   -0.00036619    0.00000000
     atom   25 type  1   force =     0.00200229   -0.00108231    0.00000000
     atom   26 type  1   force =     0.00002114    0.00049634    0.00000000
     atom   27 type  1   force =    -0.00093454   -0.00052763    0.00000000
     atom   28 type  1   force =    -0.00340431   -0.00336131    0.00000000
     atom   29 type  1   force =    -0.00000922    0.00251020    0.00000000
     atom   30 type  1   force =    -0.00469520   -0.00134013    0.00000000
     atom   31 type  1   force =     0.00138222    0.00075822    0.00000000

     Total force =     0.029511     Total SCF correction =     0.000502


     Computing stress (Cartesian axis) and pressure

          total   stress  (Ry/bohr**3)                   (kbar)     P=   -0.58
  -0.00000594  -0.00000000   0.00000000         -0.87     -0.00      0.00
  -0.00000000  -0.00000590   0.00000000         -0.00     -0.87      0.00
   0.00000000   0.00000000  -0.00000000          0.00      0.00     -0.00


     number of scf cycles    =   2
     number of bfgs steps    =   1

     enthalpy old            =    -140.9361082973 Ry
     enthalpy new            =    -140.9370709404 Ry

     CASE: enthalpy_new < enthalpy_old


     WARNING: bfgs curvature condition failed, Theta= 0.846
     new trust radius        =       0.0227370073 bohr
     new conv_thr            =       0.0000009626 Ry

     new unit-cell volume =  37103.13067 a.u.^3 (  5498.11664 Ang^3 )
     density =      0.28071 g/cm^3

CELL_PARAMETERS (alat= 33.68096681)
   0.999633550  -0.000000853   0.000000000
  -0.499817514   0.865709101   0.000000000
   0.000000000   0.000000000   1.122132950

ATOMIC_POSITIONS (angstrom)
Al      -0.001957361   2.578341081   0.000000000
Al       2.227096090   1.283200005   0.000000000
Al      -2.225752449   6.429899150   0.000000000
Al      -0.003723404   5.142010837   0.000000000
Al      -4.449370511  10.281632991   0.000000000
Al      -2.229982440   8.998095631   0.000000000
Al      -6.681220304  14.143974527   0.000000000
Al      -4.456374544  12.859443405   0.000000000
Al       4.456201240   2.578294904   0.000000000
Al       6.678591272   1.284359119   0.000000000
Al       2.227153726   6.449162876   0.000000000
Al       4.457938697   5.142105463   0.000000000
Al       0.017384564  10.276546220   0.000000000
Al      -2.220349425  14.142296689   0.000000000
Al       0.000793252  12.862024433   0.000000000
Al       8.907693327   2.571350129   0.000000000
Al      11.135548196   1.287495092   0.000000000
Al       6.679920937   6.429932614   0.000000000
Al       8.909855116   5.142461483   0.000000000
Al       4.436877234  10.276554364   0.000000000
Al       6.684233283   8.998137189   0.000000000
Al       2.227123127  14.142517524   0.000000000
Al       4.453539484  12.862048876   0.000000000
Al      13.363211189   2.571308604   0.000000000
Al      15.592301944   1.284384972   0.000000000
Al      11.135449549   6.429813407   0.000000000
Al      13.361183723   5.142477807   0.000000000
Al       8.903609436  10.281595910   0.000000000
Al      11.135490591   9.003930845   0.000000000
Al       6.674562535  14.142297179   0.000000000
Al       8.910649785  12.859521955   0.000000000



     Writing output data file 14al_planar_2x2_vcr.save/
     NEW-OLD atomic charge density approx. for the potential

     negative rho (up, down):  4.862E-07 0.000E+00
     extrapolated charge   92.95881, renormalised to   93.00000

     total cpu time spent up to now is      938.3 secs

     Self-consistent Calculation

     iteration #  1     ecut=    80.00 Ry     beta= 0.40
     Davidson diagonalization with overlap
     ethr =  1.00E-06,  avg # of iterations =  5.0

     negative rho (up, down):  2.434E-07 0.000E+00

     total cpu time spent up to now is      978.0 secs

     total energy              =    -140.93836211 Ry
     Harris-Foulkes estimate   =    -141.14233208 Ry
     estimated scf accuracy    <       0.00016532 Ry

     iteration #  2     ecut=    80.00 Ry     beta= 0.40
     Davidson diagonalization with overlap
     ethr =  1.78E-07,  avg # of iterations =  5.0

     negative rho (up, down):  2.206E-07 0.000E+00

     total cpu time spent up to now is     1016.5 secs

     total energy              =    -140.93830000 Ry
     Harris-Foulkes estimate   =    -140.93863108 Ry
     estimated scf accuracy    <       0.00265976 Ry

     iteration #  3     ecut=    80.00 Ry     beta= 0.40
     Davidson diagonalization with overlap
     ethr =  1.78E-07,  avg # of iterations =  4.0

     negative rho (up, down):  1.390E-07 0.000E+00

     total cpu time spent up to now is     1046.5 secs

     total energy              =    -140.93845378 Ry
     Harris-Foulkes estimate   =    -140.93846004 Ry
     estimated scf accuracy    <       0.00002450 Ry

     iteration #  4     ecut=    80.00 Ry     beta= 0.40
     Davidson diagonalization with overlap
     ethr =  2.63E-08,  avg # of iterations =  4.0

     negative rho (up, down):  9.749E-08 0.000E+00

     total cpu time spent up to now is     1074.5 secs

     total energy              =    -140.93845386 Ry
     Harris-Foulkes estimate   =    -140.93845873 Ry
     estimated scf accuracy    <       0.00001977 Ry

     iteration #  5     ecut=    80.00 Ry     beta= 0.40
     Davidson diagonalization with overlap
     ethr =  2.13E-08,  avg # of iterations =  3.0

     negative rho (up, down):  4.929E-08 0.000E+00

     total cpu time spent up to now is     1100.1 secs

     total energy              =    -140.93845487 Ry
     Harris-Foulkes estimate   =    -140.93845900 Ry
     estimated scf accuracy    <       0.00002410 Ry

     iteration #  6     ecut=    80.00 Ry     beta= 0.40
     Davidson diagonalization with overlap
     ethr =  2.13E-08,  avg # of iterations =  2.0

     negative rho (up, down):  1.811E-08 0.000E+00

     total cpu time spent up to now is     1126.5 secs

     total energy              =    -140.93845701 Ry
     Harris-Foulkes estimate   =    -140.93845753 Ry
     estimated scf accuracy    <       0.00000267 Ry

     iteration #  7     ecut=    80.00 Ry     beta= 0.40
     Davidson diagonalization with overlap
     ethr =  2.87E-09,  avg # of iterations =  5.0

     negative rho (up, down):  1.218E-08 0.000E+00

     total cpu time spent up to now is     1159.7 secs

     total energy              =    -140.93845708 Ry
     Harris-Foulkes estimate   =    -140.93845802 Ry
     estimated scf accuracy    <       0.00000677 Ry

     iteration #  8     ecut=    80.00 Ry     beta= 0.40
     Davidson diagonalization with overlap
     ethr =  2.87E-09,  avg # of iterations =  3.0

     total cpu time spent up to now is     1186.8 secs

     End of self-consistent calculation

          k = 0.0000 0.0000 0.0000 (448403 PWs)   bands (ev):

    -9.9544  -9.4500  -9.4361  -9.4353  -9.4236  -9.4231  -9.1417  -8.4049
    -8.4034  -8.3854  -8.3803  -8.3801  -8.3079  -8.2507  -8.2501  -7.5846
    -6.9326  -6.9324  -6.8232  -6.4788  -6.4779  -6.4759  -6.3752  -6.3750
    -5.4771  -4.8348  -4.8347  -4.8334  -4.7376  -4.7376  -4.4756  -4.4667
    -4.4436  -4.4435  -4.1287  -4.1287  -3.9784  -3.4721  -3.4667  -3.4662
    -3.4590  -3.4582  -3.3971  -3.2723  -3.2717  -3.2326  -3.2197  -2.9654
    -2.9613  -2.9611  -2.9434  -2.5142  -2.5139  -2.4467  -2.4420  -2.4412

     the Fermi energy is    -3.0908 ev

!    total energy              =    -140.93845746 Ry
     Harris-Foulkes estimate   =    -140.93845757 Ry
     estimated scf accuracy    <       0.00000027 Ry

     The total energy is the sum of the following terms:

     one-electron contribution =    -502.26126163 Ry
     hartree contribution      =     259.87485569 Ry
     xc contribution           =     -61.33147991 Ry
     ewald contribution        =     162.85981930 Ry
     smearing contrib. (-TS)   =      -0.08039090 Ry

     convergence has been achieved in   8 iterations

     Forces acting on atoms (cartesian axes, Ry/au):

     atom    1 type  1   force =    -0.00080343    0.00362272    0.00000000
     atom    2 type  1   force =     0.00003103   -0.00094520    0.00000000
     atom    3 type  1   force =     0.00037168    0.00019418    0.00000000
     atom    4 type  1   force =    -0.00060440    0.00041626    0.00000000
     atom    5 type  1   force =     0.00277914   -0.00233521    0.00000000
     atom    6 type  1   force =     0.00003164   -0.00071385    0.00000000
     atom    7 type  1   force =     0.00001666   -0.00002145    0.00000000
     atom    8 type  1   force =    -0.00076542    0.00037821    0.00000000
     atom    9 type  1   force =     0.00079793    0.00359276    0.00000000
     atom   10 type  1   force =    -0.00201329   -0.00107563    0.00000000
     atom   11 type  1   force =     0.00002069    0.01478349    0.00000000
     atom   12 type  1   force =     0.00060318    0.00043469    0.00000000
     atom   13 type  1   force =     0.01280948   -0.00739241    0.00000000
     atom   14 type  1   force =     0.00349929   -0.00125321    0.00000000
     atom   15 type  1   force =     0.00052071    0.00030582    0.00000000
     atom   16 type  1   force =    -0.00085230   -0.00046428    0.00000000
     atom   17 type  1   force =     0.00003646    0.00074038    0.00000000
     atom   18 type  1   force =    -0.00038904    0.00019868    0.00000000
     atom   19 type  1   force =     0.00061889   -0.00039131    0.00000000
     atom   20 type  1   force =    -0.01282584   -0.00736503    0.00000000
     atom   21 type  1   force =    -0.00002152   -0.00073808    0.00000000
     atom   22 type  1   force =     0.00001508   -0.00032669    0.00000000
     atom   23 type  1   force =    -0.00054494    0.00028844    0.00000000
     atom   24 type  1   force =     0.00085845   -0.00051287    0.00000000
     atom   25 type  1   force =     0.00194743   -0.00107387    0.00000000
     atom   26 type  1   force =     0.00001517    0.00083226    0.00000000
     atom   27 type  1   force =    -0.00063397   -0.00037846    0.00000000
     atom   28 type  1   force =    -0.00276806   -0.00237902    0.00000000
     atom   29 type  1   force =    -0.00000499    0.00241278    0.00000000
     atom   30 type  1   force =    -0.00351075   -0.00123497    0.00000000
     atom   31 type  1   force =     0.00076506    0.00040087    0.00000000

     Total force =     0.027631     Total SCF correction =     0.000281


     Computing stress (Cartesian axis) and pressure

          total   stress  (Ry/bohr**3)                   (kbar)     P=   -0.60
  -0.00000611  -0.00000001   0.00000000         -0.90     -0.00      0.00
  -0.00000001  -0.00000608   0.00000000         -0.00     -0.89      0.00
   0.00000000   0.00000000   0.00000003          0.00      0.00      0.00


     number of scf cycles    =   3
     number of bfgs steps    =   2

     enthalpy old            =    -140.9370709404 Ry
     enthalpy new            =    -140.9384574563 Ry

     CASE: enthalpy_new < enthalpy_old

     new trust radius        =       0.0340979597 bohr
     new conv_thr            =       0.0000010000 Ry

     new unit-cell volume =  37077.94678 a.u.^3 (  5494.38477 Ang^3 )
     density =      0.28090 g/cm^3

CELL_PARAMETERS (alat= 33.68096681)
   0.999293860  -0.000001604   0.000000000
  -0.499648320   0.865415953   0.000000000
   0.000000000   0.000000000   1.122132950

ATOMIC_POSITIONS (angstrom)
Al      -0.003316133   2.582706276   0.000000000
Al       2.226341837   1.280981218   0.000000000
Al      -2.224143035   6.428229069   0.000000000
Al      -0.005874531   5.139922592   0.000000000
Al      -4.444010098  10.274470189   0.000000000
Al      -2.230592253   8.993350139   0.000000000
Al      -6.678937408  14.139157171   0.000000000
Al      -4.456383366  12.855922727   0.000000000
Al       4.456080613   2.582613536   0.000000000
Al       6.673897813   1.282590915   0.000000000
Al       2.226428613   6.465009589   0.000000000
Al       4.458554300   5.140063185   0.000000000
Al       0.032993333  10.264045191   0.000000000
Al      -2.214437371  14.135989723   0.000000000
Al       0.001497344  12.859669722   0.000000000
Al       8.903841362   2.570045559   0.000000000
Al      11.131814056   1.288262821   0.000000000
Al       6.676759656   6.428257370   0.000000000
Al       8.907880349   5.140087072   0.000000000
Al       4.419751897  10.264053288   0.000000000
Al       6.683308047   8.993384711   0.000000000
Al       2.226353905  14.136770330   0.000000000
Al       4.451317874  12.859688493   0.000000000
Al      13.359471696   2.569955232   0.000000000
Al      15.589358760   1.282611082   0.000000000
Al      11.131643645   6.428458124   0.000000000
Al      13.355606490   5.140096974   0.000000000
Al       8.896727012  10.274361644   0.000000000
Al      11.131686797   9.003713673   0.000000000
Al       6.667084263  14.135970113   0.000000000
Al       8.909115063  12.856018609   0.000000000



     Writing output data file 14al_planar_2x2_vcr.save/
     NEW-OLD atomic charge density approx. for the potential

     negative rho (up, down):  7.555E-07 0.000E+00
     extrapolated charge   92.93688, renormalised to   93.00000

     total cpu time spent up to now is     1263.4 secs

     Self-consistent Calculation

     iteration #  1     ecut=    80.00 Ry     beta= 0.40
     Davidson diagonalization with overlap
     ethr =  1.00E-06,  avg # of iterations =  5.0

     negative rho (up, down):  3.844E-07 0.000E+00

     total cpu time spent up to now is     1304.9 secs

     total energy              =    -140.94024014 Ry
     Harris-Foulkes estimate   =    -141.25289151 Ry
     estimated scf accuracy    <       0.00017148 Ry

     iteration #  2     ecut=    80.00 Ry     beta= 0.40
     Davidson diagonalization with overlap
     ethr =  1.84E-07,  avg # of iterations =  5.0

     negative rho (up, down):  3.423E-07 0.000E+00

     total cpu time spent up to now is     1343.1 secs

     total energy              =    -140.94025079 Ry
     Harris-Foulkes estimate   =    -140.94043234 Ry
     estimated scf accuracy    <       0.00125854 Ry

     iteration #  3     ecut=    80.00 Ry     beta= 0.40
     Davidson diagonalization with overlap
     ethr =  1.84E-07,  avg # of iterations =  4.0

     negative rho (up, down):  2.246E-07 0.000E+00

     total cpu time spent up to now is     1373.0 secs

     total energy              =    -140.94033419 Ry
     Harris-Foulkes estimate   =    -140.94035074 Ry
     estimated scf accuracy    <       0.00008088 Ry

     iteration #  4     ecut=    80.00 Ry     beta= 0.40
     Davidson diagonalization with overlap
     ethr =  8.70E-08,  avg # of iterations =  1.0

     negative rho (up, down):  1.177E-07 0.000E+00

     total cpu time spent up to now is     1396.9 secs

     total energy              =    -140.94033760 Ry
     Harris-Foulkes estimate   =    -140.94034153 Ry
     estimated scf accuracy    <       0.00001741 Ry

     iteration #  5     ecut=    80.00 Ry     beta= 0.40
     Davidson diagonalization with overlap
     ethr =  1.87E-08,  avg # of iterations =  4.0

     negative rho (up, down):  6.774E-08 0.000E+00

     total cpu time spent up to now is     1427.2 secs

     total energy              =    -140.94033415 Ry
     Harris-Foulkes estimate   =    -140.94034483 Ry
     estimated scf accuracy    <       0.00006532 Ry

     iteration #  6     ecut=    80.00 Ry     beta= 0.40
     Davidson diagonalization with overlap
     ethr =  1.87E-08,  avg # of iterations =  4.0

     negative rho (up, down):  2.688E-08 0.000E+00

     total cpu time spent up to now is     1457.9 secs

     total energy              =    -140.94033965 Ry
     Harris-Foulkes estimate   =    -140.94034135 Ry
     estimated scf accuracy    <       0.00001294 Ry

     iteration #  7     ecut=    80.00 Ry     beta= 0.40
     Davidson diagonalization with overlap
     ethr =  1.39E-08,  avg # of iterations =  1.0

     negative rho (up, down):  1.597E-08 0.000E+00

     total cpu time spent up to now is     1482.3 secs

     total energy              =    -140.94034043 Ry
     Harris-Foulkes estimate   =    -140.94034065 Ry
     estimated scf accuracy    <       0.00000156 Ry

     iteration #  8     ecut=    80.00 Ry     beta= 0.40
     Davidson diagonalization with overlap
     ethr =  1.68E-09,  avg # of iterations =  5.0

     total cpu time spent up to now is     1514.4 secs

     total energy              =    -140.94034056 Ry
     Harris-Foulkes estimate   =    -140.94034086 Ry
     estimated scf accuracy    <       0.00000202 Ry

     iteration #  9     ecut=    80.00 Ry     beta= 0.40
     Davidson diagonalization with overlap
     ethr =  1.68E-09,  avg # of iterations =  3.0

     total cpu time spent up to now is     1540.6 secs

     End of self-consistent calculation

          k = 0.0000 0.0000 0.0000 (448403 PWs)   bands (ev):

    -9.9553  -9.4506  -9.4393  -9.4385  -9.4206  -9.4202  -9.1383  -8.4037
    -8.4024  -8.3909  -8.3744  -8.3741  -8.3105  -8.2446  -8.2441  -7.5824
    -6.9325  -6.9323  -6.8231  -6.4789  -6.4778  -6.4681  -6.3782  -6.3781
    -5.4884  -4.8297  -4.8275  -4.8274  -4.7381  -4.7380  -4.4727  -4.4646
    -4.4441  -4.4440  -4.1346  -4.1344  -3.9787  -3.4720  -3.4671  -3.4664
    -3.4578  -3.4573  -3.3931  -3.2693  -3.2688  -3.2553  -3.2177  -2.9600
    -2.9573  -2.9571  -2.9437  -2.5086  -2.5083  -2.4447  -2.4359  -2.4354

     the Fermi energy is    -3.0901 ev

!    total energy              =    -140.94034038 Ry
     Harris-Foulkes estimate   =    -140.94034073 Ry
     estimated scf accuracy    <       0.00000049 Ry

     The total energy is the sum of the following terms:

     one-electron contribution =    -502.47145822 Ry
     hartree contribution      =     259.97920943 Ry
     xc contribution           =     -61.32822956 Ry
     ewald contribution        =     162.95955844 Ry
     smearing contrib. (-TS)   =      -0.07942048 Ry

     convergence has been achieved in   9 iterations

     Forces acting on atoms (cartesian axes, Ry/au):

     atom    1 type  1   force =    -0.00014343    0.00229602    0.00000000
     atom    2 type  1   force =     0.00001999    0.00000195    0.00000000
     atom    3 type  1   force =    -0.00010191   -0.00007652    0.00000000
     atom    4 type  1   force =     0.00134360    0.00170993    0.00000000
     atom    5 type  1   force =     0.00195767   -0.00113827    0.00000000
     atom    6 type  1   force =     0.00214515    0.00034359    0.00000000
     atom    7 type  1   force =     0.00001397   -0.00002382    0.00000000
     atom    8 type  1   force =     0.00003523   -0.00007150    0.00000000
     atom    9 type  1   force =     0.00013131    0.00229179    0.00000000
     atom   10 type  1   force =    -0.00194976   -0.00108445    0.00000000
     atom   11 type  1   force =     0.00001626    0.01471274    0.00000000
     atom   12 type  1   force =    -0.00135117    0.00171963    0.00000000
     atom   13 type  1   force =     0.01273295   -0.00736821    0.00000000
     atom   14 type  1   force =     0.00202536   -0.00111537    0.00000000
     atom   15 type  1   force =     0.00069796   -0.00203880    0.00000000
     atom   16 type  1   force =    -0.00118376   -0.00066897    0.00000000
     atom   17 type  1   force =     0.00003573    0.00034796    0.00000000
     atom   18 type  1   force =     0.00008204   -0.00008259    0.00000000
     atom   19 type  1   force =     0.00025842   -0.00020429    0.00000000
     atom   20 type  1   force =    -0.01276093   -0.00733791    0.00000000
     atom   21 type  1   force =    -0.00212634    0.00032718    0.00000000
     atom   22 type  1   force =     0.00001310    0.00020155    0.00000000
     atom   23 type  1   force =    -0.00072049   -0.00205490    0.00000000
     atom   24 type  1   force =     0.00118366   -0.00071540    0.00000000
     atom   25 type  1   force =     0.00190324   -0.00107208    0.00000000
     atom   26 type  1   force =     0.00002521    0.00127410    0.00000000
     atom   27 type  1   force =    -0.00027448   -0.00018474    0.00000000
     atom   28 type  1   force =    -0.00195332   -0.00118055    0.00000000
     atom   29 type  1   force =     0.00000383    0.00233187    0.00000000
     atom   30 type  1   force =    -0.00202296   -0.00110046    0.00000000
     atom   31 type  1   force =    -0.00003614   -0.00003947    0.00000000

     Total force =     0.027025     Total SCF correction =     0.000518


     Computing stress (Cartesian axis) and pressure

          total   stress  (Ry/bohr**3)                   (kbar)     P=   -0.62
  -0.00000635  -0.00000002   0.00000000         -0.93     -0.00      0.00
  -0.00000002  -0.00000633   0.00000000         -0.00     -0.93      0.00
   0.00000000   0.00000000   0.00000003          0.00      0.00      0.00


     number of scf cycles    =   4
     number of bfgs steps    =   3

     enthalpy old            =    -140.9384574563 Ry
     enthalpy new            =    -140.9403403797 Ry

     CASE: enthalpy_new < enthalpy_old

     new trust radius        =       0.0511296021 bohr
     new conv_thr            =       0.0000010000 Ry

     new unit-cell volume =  37039.70451 a.u.^3 (  5488.71785 Ang^3 )
     density =      0.28119 g/cm^3

CELL_PARAMETERS (alat= 33.68096681)
   0.998778034  -0.000002993   0.000000000
  -0.499391609   0.864970546   0.000000000
   0.000000000   0.000000000   1.122132950

ATOMIC_POSITIONS (angstrom)
Al      -0.004996425   2.588521645   0.000000000
Al       2.225183942   1.278151710   0.000000000
Al      -2.221956523   6.425549437   0.000000000
Al      -0.008070387   5.137452393   0.000000000
Al      -4.436392861  10.264292147   0.000000000
Al      -2.230356026   8.986725923   0.000000000
Al      -6.675476112  14.131835693   0.000000000
Al      -4.455948252  12.850324628   0.000000000
Al       4.455513809   2.588373100   0.000000000
Al       6.666855268   1.279918940   0.000000000
Al       2.225324265   6.488716546   0.000000000
Al       4.458409362   5.137660143   0.000000000
Al       0.056376036  10.245226781   0.000000000
Al      -2.206355594  14.126521129   0.000000000
Al       0.002670238  12.854797726   0.000000000
Al       8.897827737   2.567959565   0.000000000
Al      11.126143297   1.289200857   0.000000000
Al       6.672210769   6.425560598   0.000000000
Al       8.904676968   5.136583998   0.000000000
Al       4.394057623  10.245232180   0.000000000
Al       6.680739715   8.986756818   0.000000000
Al       2.225179018  14.128308705   0.000000000
Al       4.447841326  12.854810695   0.000000000
Al      13.353949304   2.567796675   0.000000000
Al      15.584819126   1.279934788   0.000000000
Al      11.125865620   6.426632403   0.000000000
Al      13.347343768   5.136586792   0.000000000
Al       8.886788200  10.264071798   0.000000000
Al      11.125913412   9.003266480   0.000000000
Al       6.656624528  14.126462393   0.000000000
Al       8.906327940  12.850449916   0.000000000



     Writing output data file 14al_planar_2x2_vcr.save/
     NEW-OLD atomic charge density approx. for the potential

     negative rho (up, down):  1.154E-06 0.000E+00
     extrapolated charge   92.90406, renormalised to   93.00000

     total cpu time spent up to now is     1623.3 secs

     Self-consistent Calculation

     iteration #  1     ecut=    80.00 Ry     beta= 0.40
     Davidson diagonalization with overlap
     ethr =  1.00E-06,  avg # of iterations =  6.0

     negative rho (up, down):  5.968E-07 0.000E+00

     total cpu time spent up to now is     1669.4 secs

     total energy              =    -140.94274426 Ry
     Harris-Foulkes estimate   =    -141.41835299 Ry
     estimated scf accuracy    <       0.00035420 Ry

     iteration #  2     ecut=    80.00 Ry     beta= 0.40
     Davidson diagonalization with overlap
     ethr =  3.81E-07,  avg # of iterations =  5.0

     negative rho (up, down):  5.344E-07 0.000E+00

     total cpu time spent up to now is     1708.0 secs

     total energy              =    -140.94276539 Ry
     Harris-Foulkes estimate   =    -140.94317121 Ry
     estimated scf accuracy    <       0.00290963 Ry

     iteration #  3     ecut=    80.00 Ry     beta= 0.40
     Davidson diagonalization with overlap
     ethr =  3.81E-07,  avg # of iterations =  4.0

     negative rho (up, down):  3.536E-07 0.000E+00

     total cpu time spent up to now is     1738.1 secs

     total energy              =    -140.94295079 Ry
     Harris-Foulkes estimate   =    -140.94297593 Ry
     estimated scf accuracy    <       0.00011666 Ry

     iteration #  4     ecut=    80.00 Ry     beta= 0.40
     Davidson diagonalization with overlap
     ethr =  1.25E-07,  avg # of iterations =  2.0

     negative rho (up, down):  1.694E-07 0.000E+00

     total cpu time spent up to now is     1761.9 secs

     total energy              =    -140.94295304 Ry
     Harris-Foulkes estimate   =    -140.94296158 Ry
     estimated scf accuracy    <       0.00004167 Ry

     iteration #  5     ecut=    80.00 Ry     beta= 0.40
     Davidson diagonalization with overlap
     ethr =  4.48E-08,  avg # of iterations =  5.0

     negative rho (up, down):  8.852E-08 0.000E+00

     total cpu time spent up to now is     1789.8 secs

     total energy              =    -140.94294608 Ry
     Harris-Foulkes estimate   =    -140.94296739 Ry
     estimated scf accuracy    <       0.00012796 Ry

     iteration #  6     ecut=    80.00 Ry     beta= 0.40
     Davidson diagonalization with overlap
     ethr =  4.48E-08,  avg # of iterations =  4.0

     negative rho (up, down):  3.838E-08 0.000E+00

     total cpu time spent up to now is     1818.0 secs

     total energy              =    -140.94295727 Ry
     Harris-Foulkes estimate   =    -140.94296062 Ry
     estimated scf accuracy    <       0.00002413 Ry

     iteration #  7     ecut=    80.00 Ry     beta= 0.40
     Davidson diagonalization with overlap
     ethr =  2.60E-08,  avg # of iterations =  1.0

     negative rho (up, down):  2.265E-08 0.000E+00

     total cpu time spent up to now is     1842.8 secs

     total energy              =    -140.94295880 Ry
     Harris-Foulkes estimate   =    -140.94295927 Ry
     estimated scf accuracy    <       0.00000281 Ry

     iteration #  8     ecut=    80.00 Ry     beta= 0.40
     Davidson diagonalization with overlap
     ethr =  3.02E-09,  avg # of iterations =  5.0

     total cpu time spent up to now is     1878.0 secs

     total energy              =    -140.94295861 Ry
     Harris-Foulkes estimate   =    -140.94295937 Ry
     estimated scf accuracy    <       0.00000506 Ry

     iteration #  9     ecut=    80.00 Ry     beta= 0.40
     Davidson diagonalization with overlap
     ethr =  3.02E-09,  avg # of iterations =  3.0

     total cpu time spent up to now is     1904.8 secs

     total energy              =    -140.94295876 Ry
     Harris-Foulkes estimate   =    -140.94295897 Ry
     estimated scf accuracy    <       0.00000203 Ry

     iteration # 10     ecut=    80.00 Ry     beta= 0.40
     Davidson diagonalization with overlap
     ethr =  2.18E-09,  avg # of iterations =  1.0

     total cpu time spent up to now is     1929.1 secs

     total energy              =    -140.94295872 Ry
     Harris-Foulkes estimate   =    -140.94295887 Ry
     estimated scf accuracy    <       0.00000122 Ry

     iteration # 11     ecut=    80.00 Ry     beta= 0.40
     Davidson diagonalization with overlap
     ethr =  1.32E-09,  avg # of iterations =  1.0

     total cpu time spent up to now is     1952.9 secs

     End of self-consistent calculation

          k = 0.0000 0.0000 0.0000 (448403 PWs)   bands (ev):

    -9.9567  -9.4517  -9.4438  -9.4431  -9.4159  -9.4157  -9.1341  -8.4024
    -8.4013  -8.3970  -8.3675  -8.3672  -8.3136  -8.2346  -8.2342  -7.5799
    -6.9327  -6.9324  -6.8233  -6.4784  -6.4772  -6.4571  -6.3817  -6.3816
    -5.5048  -4.8243  -4.8177  -4.8175  -4.7375  -4.7375  -4.4689  -4.4616
    -4.4445  -4.4444  -4.1427  -4.1427  -3.9792  -3.4721  -3.4689  -3.4681
    -3.4544  -3.4541  -3.3868  -3.2895  -3.2649  -3.2644  -3.2154  -2.9600
    -2.9513  -2.9510  -2.9347  -2.5009  -2.5007  -2.4426  -2.4281  -2.4273

     the Fermi energy is    -3.0890 ev

!    total energy              =    -140.94295851 Ry
     Harris-Foulkes estimate   =    -140.94295877 Ry
     estimated scf accuracy    <       0.00000032 Ry

     The total energy is the sum of the following terms:

     one-electron contribution =    -502.79112826 Ry
     hartree contribution      =     260.13648161 Ry
     xc contribution           =     -61.32348175 Ry
     ewald contribution        =     163.11301753 Ry
     smearing contrib. (-TS)   =      -0.07784764 Ry

     convergence has been achieved in  11 iterations

     Forces acting on atoms (cartesian axes, Ry/au):

     atom    1 type  1   force =     0.00068358    0.00055223    0.00000000
     atom    2 type  1   force =     0.00003224    0.00118208    0.00000000
     atom    3 type  1   force =    -0.00072783   -0.00043746    0.00000000
     atom    4 type  1   force =     0.00398857    0.00346890    0.00000000
     atom    5 type  1   force =     0.00085848    0.00040094    0.00000000
     atom    6 type  1   force =     0.00494446    0.00176147    0.00000000
     atom    7 type  1   force =     0.00000088   -0.00001324    0.00000000
     atom    8 type  1   force =     0.00105183   -0.00065526    0.00000000
     atom    9 type  1   force =    -0.00069923    0.00058606    0.00000000
     atom   10 type  1   force =    -0.00184176   -0.00107011    0.00000000
     atom   11 type  1   force =     0.00002387    0.01480927    0.00000000
     atom   12 type  1   force =    -0.00397404    0.00343368    0.00000000
     atom   13 type  1   force =     0.01282635   -0.00740509    0.00000000
     atom   14 type  1   force =     0.00013368   -0.00090347    0.00000000
     atom   15 type  1   force =     0.00091606   -0.00516825    0.00000000
     atom   16 type  1   force =    -0.00160652   -0.00092771    0.00000000
     atom   17 type  1   force =     0.00001875   -0.00011947    0.00000000
     atom   18 type  1   force =     0.00071792   -0.00044639    0.00000000
     atom   19 type  1   force =    -0.00018059    0.00004060    0.00000000
     atom   20 type  1   force =    -0.01284308   -0.00736559    0.00000000
     atom   21 type  1   force =    -0.00492540    0.00174373    0.00000000
     atom   22 type  1   force =     0.00002059    0.00088367    0.00000000
     atom   23 type  1   force =    -0.00094341   -0.00521789    0.00000000
     atom   24 type  1   force =     0.00160135   -0.00098304    0.00000000
     atom   25 type  1   force =     0.00181325   -0.00106678    0.00000000
     atom   26 type  1   force =     0.00002508    0.00179389    0.00000000
     atom   27 type  1   force =     0.00013333    0.00007834    0.00000000
     atom   28 type  1   force =    -0.00088797    0.00037197    0.00000000
     atom   29 type  1   force =     0.00001554    0.00220980    0.00000000
     atom   30 type  1   force =    -0.00012365   -0.00090965    0.00000000
     atom   31 type  1   force =    -0.00105232   -0.00062722    0.00000000

     Total force =     0.029322     Total SCF correction =     0.000467


     Computing stress (Cartesian axis) and pressure

          total   stress  (Ry/bohr**3)                   (kbar)     P=   -0.66
  -0.00000669  -0.00000002   0.00000000         -0.98     -0.00      0.00
  -0.00000002  -0.00000667   0.00000000         -0.00     -0.98      0.00
   0.00000000   0.00000000   0.00000001          0.00      0.00      0.00


     number of scf cycles    =   5
     number of bfgs steps    =   4

     enthalpy old            =    -140.9403403797 Ry
     enthalpy new            =    -140.9429585141 Ry

     CASE: enthalpy_new < enthalpy_old

     new trust radius        =       0.0766548684 bohr
     new conv_thr            =       0.0000010000 Ry

     new unit-cell volume =  36981.99282 a.u.^3 (  5480.16586 Ang^3 )
     density =      0.28163 g/cm^3

CELL_PARAMETERS (alat= 33.68096681)
   0.997999119  -0.000005284   0.000000000
  -0.499004135   0.864298016   0.000000000
   0.000000000   0.000000000   1.122132950

ATOMIC_POSITIONS (angstrom)
Al      -0.007150851   2.596425712   0.000000000
Al       2.223439475   1.274412674   0.000000000
Al      -2.218930165   6.421349935   0.000000000
Al      -0.010195963   5.134501752   0.000000000
Al      -4.425469674  10.249654982   0.000000000
Al      -2.228756046   8.977363310   0.000000000
Al      -6.670260453  14.120787889   0.000000000
Al      -4.454835985  12.841613292   0.000000000
Al       4.454278356   2.596211934   0.000000000
Al       6.656336909   1.275921341   0.000000000
Al       2.223662339   6.524190068   0.000000000
Al       4.457011233   5.134786510   0.000000000
Al       0.091409868  10.216980950   0.000000000
Al      -2.195086060  14.112370803   0.000000000
Al       0.004540449  12.846043129   0.000000000
Al       8.888586182   2.564709476   0.000000000
Al      11.117569275   1.290406070   0.000000000
Al       6.665620593   6.421333168   0.000000000
Al       8.899643761   5.131406586   0.000000000
Al       4.355543229  10.216983218   0.000000000
Al       6.675610797   8.977389290   0.000000000
Al       2.223405121  14.115810766   0.000000000
Al       4.442490787  12.846027709   0.000000000
Al      13.345764620   2.564431528   0.000000000
Al      15.577858838   1.275920755   0.000000000
Al      11.117133497   6.424080882   0.000000000
Al      13.335046006   5.131407804   0.000000000
Al       8.872333308  10.249270857   0.000000000
Al      11.117199032   9.002448310   0.000000000
Al       6.641759639  14.112233311   0.000000000
Al       8.901657930  12.841776406   0.000000000



     Writing output data file 14al_planar_2x2_vcr.save/
     NEW-OLD atomic charge density approx. for the potential

     negative rho (up, down):  1.736E-06 0.000E+00
     extrapolated charge   92.85499, renormalised to   93.00000

     total cpu time spent up to now is     2030.8 secs

     Self-consistent Calculation

     iteration #  1     ecut=    80.00 Ry     beta= 0.40
     Davidson diagonalization with overlap
     ethr =  1.00E-06,  avg # of iterations =  8.0

     negative rho (up, down):  9.108E-07 0.000E+00

     total cpu time spent up to now is     2081.4 secs

     total energy              =    -140.94618515 Ry
     Harris-Foulkes estimate   =    -141.66587568 Ry
     estimated scf accuracy    <       0.00076470 Ry

     iteration #  2     ecut=    80.00 Ry     beta= 0.40
     Davidson diagonalization with overlap
     ethr =  8.22E-07,  avg # of iterations =  5.0

     negative rho (up, down):  8.171E-07 0.000E+00

     total cpu time spent up to now is     2119.1 secs

     total energy              =    -140.94622174 Ry
     Harris-Foulkes estimate   =    -140.94717888 Ry
     estimated scf accuracy    <       0.00695643 Ry

     iteration #  3     ecut=    80.00 Ry     beta= 0.40
     Davidson diagonalization with overlap
     ethr =  8.22E-07,  avg # of iterations =  5.0

     negative rho (up, down):  5.593E-07 0.000E+00

     total cpu time spent up to now is     2150.2 secs

     total energy              =    -140.94665768 Ry
     Harris-Foulkes estimate   =    -140.94671713 Ry
     estimated scf accuracy    <       0.00027497 Ry

     iteration #  4     ecut=    80.00 Ry     beta= 0.40
     Davidson diagonalization with overlap
     ethr =  2.96E-07,  avg # of iterations =  3.0

     negative rho (up, down):  4.105E-07 0.000E+00

     total cpu time spent up to now is     2175.8 secs

     total energy              =    -140.94665780 Ry
     Harris-Foulkes estimate   =    -140.94668806 Ry
     estimated scf accuracy    <       0.00014012 Ry

     iteration #  5     ecut=    80.00 Ry     beta= 0.40
     Davidson diagonalization with overlap
     ethr =  1.51E-07,  avg # of iterations =  2.0

     negative rho (up, down):  1.675E-07 0.000E+00

     total cpu time spent up to now is     2199.9 secs

     total energy              =    -140.94665046 Ry
     Harris-Foulkes estimate   =    -140.94669739 Ry
     estimated scf accuracy    <       0.00028950 Ry

     iteration #  6     ecut=    80.00 Ry     beta= 0.40
     Davidson diagonalization with overlap
     ethr =  1.51E-07,  avg # of iterations =  1.0

     negative rho (up, down):  4.819E-08 0.000E+00

     total cpu time spent up to now is     2224.0 secs

     total energy              =    -140.94667309 Ry
     Harris-Foulkes estimate   =    -140.94667705 Ry
     estimated scf accuracy    <       0.00002211 Ry

     iteration #  7     ecut=    80.00 Ry     beta= 0.40
     Davidson diagonalization with overlap
     ethr =  2.38E-08,  avg # of iterations =  5.0

     negative rho (up, down):  3.855E-08 0.000E+00

     total cpu time spent up to now is     2253.9 secs

     total energy              =    -140.94667627 Ry
     Harris-Foulkes estimate   =    -140.94667836 Ry
     estimated scf accuracy    <       0.00001389 Ry

     iteration #  8     ecut=    80.00 Ry     beta= 0.40
     Davidson diagonalization with overlap
     ethr =  1.49E-08,  avg # of iterations =  2.0

     negative rho (up, down):  2.105E-08 0.000E+00

     total cpu time spent up to now is     2280.1 secs

     total energy              =    -140.94667662 Ry
     Harris-Foulkes estimate   =    -140.94667754 Ry
     estimated scf accuracy    <       0.00000404 Ry

     iteration #  9     ecut=    80.00 Ry     beta= 0.40
     Davidson diagonalization with overlap
     ethr =  4.34E-09,  avg # of iterations =  3.0

     total cpu time spent up to now is     2306.4 secs

     total energy              =    -140.94667677 Ry
     Harris-Foulkes estimate   =    -140.94667712 Ry
     estimated scf accuracy    <       0.00000165 Ry

     iteration # 10     ecut=    80.00 Ry     beta= 0.40
     Davidson diagonalization with overlap
     ethr =  1.77E-09,  avg # of iterations =  4.0

     total cpu time spent up to now is     2338.4 secs

     total energy              =    -140.94667631 Ry
     Harris-Foulkes estimate   =    -140.94667686 Ry
     estimated scf accuracy    <       0.00000454 Ry

     iteration # 11     ecut=    80.00 Ry     beta= 0.40
     Davidson diagonalization with overlap
     ethr =  1.77E-09,  avg # of iterations =  3.0

     total cpu time spent up to now is     2364.8 secs

     total energy              =    -140.94667607 Ry
     Harris-Foulkes estimate   =    -140.94667629 Ry
     estimated scf accuracy    <       0.00000118 Ry

     iteration # 12     ecut=    80.00 Ry     beta= 0.40
     Davidson diagonalization with overlap
     ethr =  1.26E-09,  avg # of iterations =  4.0

     total cpu time spent up to now is     2391.7 secs

     End of self-consistent calculation

          k = 0.0000 0.0000 0.0000 (448403 PWs)   bands (ev):

    -9.9594  -9.4536  -9.4508  -9.4503  -9.4103  -9.4101  -9.1294  -8.4057
    -8.4015  -8.4008  -8.3600  -8.3598  -8.3184  -8.2185  -8.2181  -7.5782
    -6.9337  -6.9334  -6.8249  -6.4776  -6.4763  -6.4425  -6.3860  -6.3857
    -5.5296  -4.8172  -4.8052  -4.8049  -4.7355  -4.7354  -4.4639  -4.4574
    -4.4456  -4.4455  -4.1556  -4.1555  -3.9802  -3.4725  -3.4722  -3.4717
    -3.4494  -3.4492  -3.3775  -3.3418  -3.2590  -3.2586  -3.2130  -2.9659
    -2.9425  -2.9423  -2.9151  -2.4906  -2.4904  -2.4405  -2.4187  -2.4172

     the Fermi energy is    -3.0877 ev

!    total energy              =    -140.94667564 Ry
     Harris-Foulkes estimate   =    -140.94667594 Ry
     estimated scf accuracy    <       0.00000034 Ry

     The total energy is the sum of the following terms:

     one-electron contribution =    -503.28279421 Ry
     hartree contribution      =     260.37941712 Ry
     xc contribution           =     -61.31771208 Ry
     ewald contribution        =     163.34966058 Ry
     smearing contrib. (-TS)   =      -0.07524704 Ry

     convergence has been achieved in  12 iterations

     Forces acting on atoms (cartesian axes, Ry/au):

     atom    1 type  1   force =     0.00172588   -0.00178177    0.00000000
     atom    2 type  1   force =     0.00003628    0.00276622    0.00000000
     atom    3 type  1   force =    -0.00151470   -0.00088163    0.00000000
     atom    4 type  1   force =     0.00753362    0.00586027    0.00000000
     atom    5 type  1   force =    -0.00065819    0.00243751    0.00000000
     atom    6 type  1   force =     0.00879641    0.00361786    0.00000000
     atom    7 type  1   force =     0.00000510   -0.00000841    0.00000000
     atom    8 type  1   force =     0.00236426   -0.00143920    0.00000000
     atom    9 type  1   force =    -0.00179711   -0.00171742    0.00000000
     atom   10 type  1   force =    -0.00173706   -0.00104831    0.00000000
     atom   11 type  1   force =     0.00002823    0.01509089    0.00000000
     atom   12 type  1   force =    -0.00756131    0.00581640    0.00000000
     atom   13 type  1   force =     0.01309188   -0.00755485    0.00000000
     atom   14 type  1   force =    -0.00239176   -0.00059382    0.00000000
     atom   15 type  1   force =     0.00125942   -0.00946236    0.00000000
     atom   16 type  1   force =    -0.00217881   -0.00125835    0.00000000
     atom   17 type  1   force =     0.00006974   -0.00072007    0.00000000
     atom   18 type  1   force =     0.00149638   -0.00087659    0.00000000
     atom   19 type  1   force =    -0.00072011    0.00036823    0.00000000
     atom   20 type  1   force =    -0.01310507   -0.00749902    0.00000000
     atom   21 type  1   force =    -0.00878052    0.00359834    0.00000000
     atom   22 type  1   force =     0.00004212    0.00174014    0.00000000
     atom   23 type  1   force =    -0.00131287   -0.00950357    0.00000000
     atom   24 type  1   force =     0.00212081   -0.00132759    0.00000000
     atom   25 type  1   force =     0.00176598   -0.00102989    0.00000000
     atom   26 type  1   force =     0.00004793    0.00249382    0.00000000
     atom   27 type  1   force =     0.00067197    0.00041929    0.00000000
     atom   28 type  1   force =     0.00059006    0.00243518    0.00000000
     atom   29 type  1   force =     0.00006532    0.00205895    0.00000000
     atom   30 type  1   force =     0.00246163   -0.00061927    0.00000000
     atom   31 type  1   force =    -0.00241551   -0.00138099    0.00000000

     Total force =     0.036507     Total SCF correction =     0.000467


     Computing stress (Cartesian axis) and pressure

          total   stress  (Ry/bohr**3)                   (kbar)     P=   -0.70
  -0.00000716  -0.00000003   0.00000000         -1.05     -0.00      0.00
  -0.00000003  -0.00000717   0.00000000         -0.00     -1.05      0.00
   0.00000000   0.00000000   0.00000002          0.00      0.00      0.00


     number of scf cycles    =   6
     number of bfgs steps    =   5

     enthalpy old            =    -140.9429585141 Ry
     enthalpy new            =    -140.9466756407 Ry

     CASE: enthalpy_new < enthalpy_old

     new trust radius        =       0.1148927484 bohr
     new conv_thr            =       0.0000010000 Ry

     new unit-cell volume =  36895.22875 a.u.^3 (  5467.30876 Ang^3 )
     density =      0.28229 g/cm^3

CELL_PARAMETERS (alat= 33.68096681)
   0.996827335  -0.000008950   0.000000000
  -0.498421418   0.863285719   0.000000000
   0.000000000   0.000000000   1.122132950

ATOMIC_POSITIONS (angstrom)
Al      -0.010031912   2.607385597   0.000000000
Al       2.220811351   1.269347656   0.000000000
Al      -2.214632422   6.414892881   0.000000000
Al      -0.012151359   5.130890672   0.000000000
Al      -4.409681633  10.228383746   0.000000000
Al      -2.224991297   8.963913750   0.000000000
Al      -6.662412224  14.104160258   0.000000000
Al      -4.452717797  12.828227997   0.000000000
Al       4.452030962   2.607080621   0.000000000
Al       6.640619010   1.269952131   0.000000000
Al       2.221164121   6.577240203   0.000000000
Al       4.453631420   5.131298250   0.000000000
Al       0.143857079  10.174629768   0.000000000
Al      -2.179115519  14.091249968   0.000000000
Al       0.007487396  12.831343517   0.000000000
Al       8.874516666   2.559726499   0.000000000
Al      11.104705764   1.292011788   0.000000000
Al       6.655951207   6.414843166   0.000000000
Al       8.891896538   5.123732225   0.000000000
Al       4.297863283  10.174630980   0.000000000
Al       6.666526731   8.963933025   0.000000000
Al       2.220743742  14.097253584   0.000000000
Al       4.434293637  12.831298619   0.000000000
Al      13.333582301   2.559268499   0.000000000
Al      15.567314982   1.269933334   0.000000000
Al      11.104003858   6.420449246   0.000000000
Al      13.316729166   5.123733576   0.000000000
Al       8.851208681  10.227764165   0.000000000
Al      11.104114551   9.001057755   0.000000000
Al       6.620406499  14.090978684   0.000000000
Al       8.894148025  12.828463243   0.000000000



     Writing output data file 14al_planar_2x2_vcr.save/
     NEW-OLD atomic charge density approx. for the potential

     negative rho (up, down):  2.660E-06 0.000E+00
     extrapolated charge   92.78148, renormalised to   93.00000

     total cpu time spent up to now is     2472.9 secs

     Self-consistent Calculation

     iteration #  1     ecut=    80.00 Ry     beta= 0.40
     Davidson diagonalization with overlap
     ethr =  1.00E-06,  avg # of iterations = 13.0

     negative rho (up, down):  1.424E-06 0.000E+00

     total cpu time spent up to now is     2527.9 secs

     total energy              =    -140.95067419 Ry
     Harris-Foulkes estimate   =    -142.03737871 Ry
     estimated scf accuracy    <       0.00204710 Ry

     iteration #  2     ecut=    80.00 Ry     beta= 0.40
     Davidson diagonalization with overlap
     ethr =  2.20E-06,  avg # of iterations = 15.0

     negative rho (up, down):  1.290E-06 0.000E+00

     total cpu time spent up to now is     2572.9 secs

     total energy              =    -140.95031549 Ry
     Harris-Foulkes estimate   =    -140.95387798 Ry
     estimated scf accuracy    <       0.02766558 Ry

     iteration #  3     ecut=    80.00 Ry     beta= 0.40
     Davidson diagonalization with overlap
     ethr =  2.20E-06,  avg # of iterations = 20.0

     negative rho (up, down):  9.475E-07 0.000E+00

     total cpu time spent up to now is     2614.4 secs

     total energy              =    -140.95174562 Ry
     Harris-Foulkes estimate   =    -140.95189394 Ry
     estimated scf accuracy    <       0.00068324 Ry

     iteration #  4     ecut=    80.00 Ry     beta= 0.40
     Davidson diagonalization with overlap
     ethr =  7.35E-07,  avg # of iterations =  2.0

     negative rho (up, down):  6.062E-07 0.000E+00

     total cpu time spent up to now is     2639.9 secs

     total energy              =    -140.95175210 Ry
     Harris-Foulkes estimate   =    -140.95180475 Ry
     estimated scf accuracy    <       0.00032527 Ry

     iteration #  5     ecut=    80.00 Ry     beta= 0.40
     Davidson diagonalization with overlap
     ethr =  3.50E-07,  avg # of iterations =  1.0

     negative rho (up, down):  3.757E-07 0.000E+00

     total cpu time spent up to now is     2664.5 secs

     total energy              =    -140.95172128 Ry
     Harris-Foulkes estimate   =    -140.95180058 Ry
     estimated scf accuracy    <       0.00041045 Ry

     iteration #  6     ecut=    80.00 Ry     beta= 0.40
     Davidson diagonalization with overlap
     ethr =  3.50E-07,  avg # of iterations =  1.0

     negative rho (up, down):  7.792E-08 0.000E+00

     total cpu time spent up to now is     2689.3 secs

     total energy              =    -140.95175360 Ry
     Harris-Foulkes estimate   =    -140.95177906 Ry
     estimated scf accuracy    <       0.00014910 Ry

     iteration #  7     ecut=    80.00 Ry     beta= 0.40
     Davidson diagonalization with overlap
     ethr =  1.60E-07,  avg # of iterations =  3.0

     negative rho (up, down):  5.220E-08 0.000E+00

     total cpu time spent up to now is     2714.7 secs

     total energy              =    -140.95176697 Ry
     Harris-Foulkes estimate   =    -140.95177491 Ry
     estimated scf accuracy    <       0.00004287 Ry

     iteration #  8     ecut=    80.00 Ry     beta= 0.40
     Davidson diagonalization with overlap
     ethr =  4.61E-08,  avg # of iterations =  3.0

     negative rho (up, down):  2.628E-08 0.000E+00

     total cpu time spent up to now is     2741.3 secs

     total energy              =    -140.95177271 Ry
     Harris-Foulkes estimate   =    -140.95177517 Ry
     estimated scf accuracy    <       0.00001340 Ry

     iteration #  9     ecut=    80.00 Ry     beta= 0.40
     Davidson diagonalization with overlap
     ethr =  1.44E-08,  avg # of iterations =  4.0

     total cpu time spent up to now is     2771.6 secs

     total energy              =    -140.95177260 Ry
     Harris-Foulkes estimate   =    -140.95177425 Ry
     estimated scf accuracy    <       0.00000700 Ry

     iteration # 10     ecut=    80.00 Ry     beta= 0.40
     Davidson diagonalization with overlap
     ethr =  7.53E-09,  avg # of iterations =  4.0

     total cpu time spent up to now is     2799.3 secs

     total energy              =    -140.95177256 Ry
     Harris-Foulkes estimate   =    -140.95177371 Ry
     estimated scf accuracy    <       0.00000695 Ry

     iteration # 11     ecut=    80.00 Ry     beta= 0.40
     Davidson diagonalization with overlap
     ethr =  7.47E-09,  avg # of iterations =  1.0

     total cpu time spent up to now is     2825.8 secs

     End of self-consistent calculation

          k = 0.0000 0.0000 0.0000 (448403 PWs)   bands (ev):

    -9.9644  -9.4613  -9.4608  -9.4567  -9.4051  -9.4048  -9.1253  -8.4199
    -8.4033  -8.4021  -8.3508  -8.3505  -8.3258  -8.1926  -8.1923  -7.5787
    -6.9361  -6.9358  -6.8299  -6.4764  -6.4754  -6.4237  -6.3906  -6.3900
    -5.5681  -4.8083  -4.7916  -4.7913  -4.7294  -4.7290  -4.4563  -4.4510
    -4.4487  -4.4485  -4.1758  -4.1754  -3.9822  -3.4774  -3.4771  -3.4723
    -3.4438  -3.4436  -3.4232  -3.3634  -3.2517  -3.2515  -3.2116  -2.9759
    -2.9298  -2.9295  -2.8842  -2.4771  -2.4766  -2.4581  -2.4390  -2.4382

     the Fermi energy is    -3.0871 ev

!    total energy              =    -140.95177227 Ry
     Harris-Foulkes estimate   =    -140.95177306 Ry
     estimated scf accuracy    <       0.00000094 Ry

     The total energy is the sum of the following terms:

     one-electron contribution =    -504.03380054 Ry
     hartree contribution      =     260.74506881 Ry
     xc contribution           =     -61.30902328 Ry
     ewald contribution        =     163.71835819 Ry
     smearing contrib. (-TS)   =      -0.07237545 Ry

     convergence has been achieved in  11 iterations

     Forces acting on atoms (cartesian axes, Ry/au):

     atom    1 type  1   force =     0.00313159   -0.00537850    0.00000000
     atom    2 type  1   force =    -0.00001627    0.00486868    0.00000000
     atom    3 type  1   force =    -0.00290757   -0.00174263    0.00000000
     atom    4 type  1   force =     0.01254722    0.00944749    0.00000000
     atom    5 type  1   force =    -0.00296023    0.00514766    0.00000000
     atom    6 type  1   force =     0.01427779    0.00625105    0.00000000
     atom    7 type  1   force =    -0.00001716   -0.00001045    0.00000000
     atom    8 type  1   force =     0.00411659   -0.00230984    0.00000000
     atom    9 type  1   force =    -0.00321926   -0.00518621    0.00000000
     atom   10 type  1   force =    -0.00196841   -0.00138068    0.00000000
     atom   11 type  1   force =    -0.00011657    0.01535504    0.00000000
     atom   12 type  1   force =    -0.01251252    0.00920428    0.00000000
     atom   13 type  1   force =     0.01328722   -0.00769411    0.00000000
     atom   14 type  1   force =    -0.00613769    0.00016005    0.00000000
     atom   15 type  1   force =     0.00196330   -0.01548907    0.00000000
     atom   16 type  1   force =    -0.00253514   -0.00166914    0.00000000
     atom   17 type  1   force =    -0.00019135   -0.00180943    0.00000000
     atom   18 type  1   force =     0.00304667   -0.00175681    0.00000000
     atom   19 type  1   force =    -0.00172921    0.00101063    0.00000000
     atom   20 type  1   force =    -0.01331159   -0.00768038    0.00000000
     atom   21 type  1   force =    -0.01430673    0.00623447    0.00000000
     atom   22 type  1   force =     0.00002599    0.00325366    0.00000000
     atom   23 type  1   force =    -0.00205691   -0.01552081    0.00000000
     atom   24 type  1   force =     0.00265741   -0.00143333    0.00000000
     atom   25 type  1   force =     0.00214245   -0.00140443    0.00000000
     atom   26 type  1   force =     0.00008993    0.00325436    0.00000000
     atom   27 type  1   force =     0.00158115    0.00094030    0.00000000
     atom   28 type  1   force =     0.00299480    0.00528785    0.00000000
     atom   29 type  1   force =     0.00002289    0.00220216    0.00000000
     atom   30 type  1   force =     0.00621113    0.00024232    0.00000000
     atom   31 type  1   force =    -0.00410951   -0.00239419    0.00000000

     Total force =     0.050552     Total SCF correction =     0.000827


     Computing stress (Cartesian axis) and pressure

          total   stress  (Ry/bohr**3)                   (kbar)     P=   -0.77
  -0.00000784   0.00000001   0.00000000         -1.15      0.00      0.00
   0.00000001  -0.00000786   0.00000000          0.00     -1.16      0.00
   0.00000000   0.00000000  -0.00000001          0.00      0.00     -0.00


     number of scf cycles    =   7
     number of bfgs steps    =   6

     enthalpy old            =    -140.9466756407 Ry
     enthalpy new            =    -140.9517722730 Ry

     CASE: enthalpy_new < enthalpy_old

     new trust radius        =       0.1721373560 bohr
     new conv_thr            =       0.0000010000 Ry

     new unit-cell volume =  36764.74711 a.u.^3 (  5447.97337 Ang^3 )
     density =      0.28329 g/cm^3

CELL_PARAMETERS (alat= 33.68096681)
   0.995062722  -0.000013053   0.000000000
  -0.497542665   0.861760239   0.000000000
   0.000000000   0.000000000   1.122132950

ATOMIC_POSITIONS (angstrom)
Al      -0.013979895   2.622566672   0.000000000
Al       2.216813213   1.262302342   0.000000000
Al      -2.208638315   6.404848724   0.000000000
Al      -0.013619969   5.126557978   0.000000000
Al      -4.386777032  10.197142279   0.000000000
Al      -2.217689810   8.944421733   0.000000000
Al      -6.650586185  14.079102116   0.000000000
Al      -4.449042495  12.807891978   0.000000000
Al       4.448271231   2.622195864   0.000000000
Al       6.616846562   1.260800460   0.000000000
[...]
Al      -5.948703188  12.670237935   0.000000000
Al      -2.650336924   9.838771288   0.000000000
Al       4.195458145   3.489971267   0.000000000
Al       3.950205265   0.789418153   0.000000000
Al       1.990545531   4.799159528   0.000000000
Al       4.817092290   6.113212915   0.000000000
Al      -0.159315218   8.577613249   0.000000000
Al      -2.028818745  12.461993831   0.000000000
Al       0.176209269  11.152957964   0.000000000
Al       6.134508268   1.851111158   0.000000000
Al       8.221347085   0.515812417   0.000000000
Al       7.579918542   5.736422735   0.000000000
Al       8.115253780   3.281981972   0.000000000
Al       2.326201674   7.374483065   0.000000000
Al       4.853035197   8.833915204   0.000000000
Al       2.514457624  12.663105642   0.000000000
Al       2.481437129   9.983417973   0.000000000
Al      12.629929489   1.132061219   0.000000000
Al      14.896209752   0.094851077   0.000000000
Al      10.169016374   4.842967497   0.000000000
Al      10.363565852   2.169089741   0.000000000
Al       7.448254689   8.248628797   0.000000000
Al       9.761976855   9.839054052   0.000000000
Al       4.764035810  11.553855424   0.000000000
Al       7.172749640  10.732449543   0.000000000
End final coordinates



     Writing output data file 14al_planar_2x2_vcr.save/

     A final scf calculation at the relaxed structure.
     The G-vectors are recalculated for the final unit cell
     Results may differ from those at the preceding step.
 
     Parallelization info
     --------------------
     sticks:   dense  smooth     PW     G-vecs:    dense   smooth      PW
     Min        2262    2262    564               324582   324582   40562
     Max        2263    2263    565               324585   324585   40565
     Sum       18103   18103   4519              2596669  2596669  324513
 


     bravais-lattice index     =            4
     lattice parameter (alat)  =      33.6810  a.u.
     unit-cell volume          =   26861.0944 (a.u.)^3
     number of atoms/cell      =           31
     number of atomic types    =            1
     number of electrons       =        93.00
     number of Kohn-Sham states=           56
     kinetic-energy cutoff     =      80.0000  Ry
     charge density cutoff     =     320.0000  Ry
     convergence threshold     =      1.0E-08
     mixing beta               =       0.4000
     number of iterations used =            8  plain     mixing
     Exchange-correlation      = PBE ( 1  4  3  4 0 0)

     celldm(1)=  33.680967  celldm(2)=   0.000000  celldm(3)=   1.122133
     celldm(4)=   0.000000  celldm(5)=   0.000000  celldm(6)=   0.000000

     crystal axes: (cart. coord. in units of alat)
               a(1) = (   0.851426  -0.021141   0.000000 )  
               a(2) = (  -0.444255   0.746863   0.000000 )  
               a(3) = (   0.000000   0.000000   1.122133 )  

     reciprocal axes: (cart. coord. in units 2 pi/alat)
               b(1) = (  1.192107  0.709098  0.000000 )  
               b(2) = (  0.033744  1.359005  0.000000 )  
               b(3) = (  0.000000  0.000000  0.891160 )  


     PseudoPot. # 1 for Al read from file:
     ./Al.upf
     MD5 check sum: 4974d48a734c9d7d1eb6780a1419d19d
     Pseudo is Norm-conserving + core correction, Zval =  3.0
     Generated using ONCVPSP code by D. R. Hamann
     Using radial grid of 1876 points,  6 beta functions with: 
                l(1) =   0
                l(2) =   0
                l(3) =   1
                l(4) =   1
                l(5) =   2
                l(6) =   2

     atomic species   valence    mass     pseudopotential
        Al             3.00    29.98200     Al( 1.00)

      2 Sym. Ops. (no inversion) found



   Cartesian axes

     site n.     atom                  positions (alat units)
         1           Al  tau(   1) = (  -0.0195118   0.1845400   0.0000000  )
         2           Al  tau(   2) = (   0.1045487   0.1192186   0.0000000  )
         3           Al  tau(   3) = (  -0.1457307   0.2467774   0.0000000  )
         4           Al  tau(   4) = (  -0.0176497   0.3348862   0.0000000  )
         5           Al  tau(   5) = (  -0.2963119   0.4322252   0.0000000  )
         6           Al  tau(   6) = (  -0.1507066   0.3993803   0.0000000  )
         7           Al  tau(   7) = (  -0.3337618   0.7108846   0.0000000  )
         8           Al  tau(   8) = (  -0.1487015   0.5520205   0.0000000  )
         9           Al  tau(   9) = (   0.2353931   0.1958106   0.0000000  )
        10           Al  tau(  10) = (   0.2216328   0.0442916   0.0000000  )
        11           Al  tau(  11) = (   0.1116828   0.2692648   0.0000000  )
        12           Al  tau(  12) = (   0.2702709   0.3429919   0.0000000  )
        13           Al  tau(  13) = (  -0.0089386   0.4812611   0.0000000  )
        14           Al  tau(  14) = (  -0.1138302   0.6992007   0.0000000  )
        15           Al  tau(  15) = (   0.0098865   0.6257551   0.0000000  )
        16           Al  tau(  16) = (   0.3441867   0.1038596   0.0000000  )
        17           Al  tau(  17) = (   0.4612722   0.0289405   0.0000000  )
        18           Al  tau(  18) = (   0.4252838   0.3218514   0.0000000  )
        19           Al  tau(  19) = (   0.4553197   0.1841410   0.0000000  )
        20           Al  tau(  20) = (   0.1305154   0.4137575   0.0000000  )
        21           Al  tau(  21) = (   0.2722875   0.4956414   0.0000000  )
        22           Al  tau(  22) = (   0.1410778   0.7104844   0.0000000  )
        23           Al  tau(  23) = (   0.1392251   0.5601361   0.0000000  )
        24           Al  tau(  24) = (   0.7086230   0.0635162   0.0000000  )
        25           Al  tau(  25) = (   0.8357764   0.0053218   0.0000000  )
        26           Al  tau(  26) = (   0.5705494   0.2717227   0.0000000  )
        27           Al  tau(  27) = (   0.5814649   0.1217004   0.0000000  )
        28           Al  tau(  28) = (   0.4178966   0.4628029   0.0000000  )
        29           Al  tau(  29) = (   0.5477118   0.5520363   0.0000000  )
        30           Al  tau(  30) = (   0.2672941   0.6482481   0.0000000  )
        31           Al  tau(  31) = (   0.4024389   0.6021618   0.0000000  )

     number of k points=     1  Methfessel-Paxton smearing, width (Ry)=  0.0500
                       cart. coord. in units 2pi/alat
        k(    1) = (   0.0000000   0.0000000   0.0000000), wk =   2.0000000

     Dense  grid:  2596669 G-vectors     FFT dimensions: ( 180, 180, 216)

     Estimated max dynamical RAM per process >     874.04 MB

     Estimated total dynamical RAM >       6.83 GB

     Initial potential from superposition of free atoms

     starting charge   92.92414, renormalised to   93.00000

     negative rho (up, down):  7.285E-05 0.000E+00
     Starting wfcs are  124 randomized atomic wfcs

     total cpu time spent up to now is    96254.0 secs

     Self-consistent Calculation

     iteration #  1     ecut=    80.00 Ry     beta= 0.40
     Davidson diagonalization with overlap
     c_bands:  3 eigenvalues not converged
     ethr =  1.00E-06,  avg # of iterations = 20.0

     negative rho (up, down):  1.138E-05 0.000E+00

     total cpu time spent up to now is    96327.9 secs

     total energy              =    -141.94848941 Ry
     Harris-Foulkes estimate   =    -142.38782388 Ry
     estimated scf accuracy    <       1.10850112 Ry

     iteration #  2     ecut=    80.00 Ry     beta= 0.40
     Davidson diagonalization with overlap
     ethr =  1.19E-03,  avg # of iterations =  5.0

     negative rho (up, down):  6.998E-06 0.000E+00

     total cpu time spent up to now is    96351.5 secs

     total energy              =    -141.89421953 Ry
     Harris-Foulkes estimate   =    -142.22052558 Ry
     estimated scf accuracy    <       1.00074316 Ry

     iteration #  3     ecut=    80.00 Ry     beta= 0.40
     Davidson diagonalization with overlap
     ethr =  1.08E-03,  avg # of iterations =  5.0

     negative rho (up, down):  2.830E-06 0.000E+00

     total cpu time spent up to now is    96375.9 secs

     total energy              =    -142.00684217 Ry
     Harris-Foulkes estimate   =    -142.14532315 Ry
     estimated scf accuracy    <       0.55698039 Ry

     iteration #  4     ecut=    80.00 Ry     beta= 0.40
     Davidson diagonalization with overlap
     ethr =  5.99E-04,  avg # of iterations =  4.0

     negative rho (up, down):  1.082E-06 0.000E+00

     total cpu time spent up to now is    96397.8 secs

     total energy              =    -142.06292141 Ry
     Harris-Foulkes estimate   =    -142.08643909 Ry
     estimated scf accuracy    <       0.07781239 Ry

     iteration #  5     ecut=    80.00 Ry     beta= 0.40
     Davidson diagonalization with overlap
     ethr =  8.37E-05,  avg # of iterations =  5.0

     negative rho (up, down):  6.710E-07 0.000E+00

     total cpu time spent up to now is    96423.0 secs

     total energy              =    -142.07539893 Ry
     Harris-Foulkes estimate   =    -142.07988899 Ry
     estimated scf accuracy    <       0.01676463 Ry

     iteration #  6     ecut=    80.00 Ry     beta= 0.40
     Davidson diagonalization with overlap
     ethr =  1.80E-05,  avg # of iterations = 17.0

     negative rho (up, down):  1.402E-07 0.000E+00

     total cpu time spent up to now is    96455.9 secs

     total energy              =    -142.07489144 Ry
     Harris-Foulkes estimate   =    -142.07698211 Ry
     estimated scf accuracy    <       0.00909856 Ry

     iteration #  7     ecut=    80.00 Ry     beta= 0.40
     Davidson diagonalization with overlap
     ethr =  9.78E-06,  avg # of iterations =  7.0

     negative rho (up, down):  2.954E-08 0.000E+00

     total cpu time spent up to now is    96480.1 secs

     total energy              =    -142.07579743 Ry
     Harris-Foulkes estimate   =    -142.07606949 Ry
     estimated scf accuracy    <       0.00111422 Ry

     iteration #  8     ecut=    80.00 Ry     beta= 0.40
     Davidson diagonalization with overlap
     ethr =  1.20E-06,  avg # of iterations =  6.0

     negative rho (up, down):  1.400E-08 0.000E+00

     total cpu time spent up to now is    96507.3 secs

     total energy              =    -142.07594235 Ry
     Harris-Foulkes estimate   =    -142.07604318 Ry
     estimated scf accuracy    <       0.00046947 Ry

     iteration #  9     ecut=    80.00 Ry     beta= 0.40
     Davidson diagonalization with overlap
     ethr =  5.05E-07,  avg # of iterations =  5.0

     total cpu time spent up to now is    96529.9 secs

     total energy              =    -142.07598027 Ry
     Harris-Foulkes estimate   =    -142.07600567 Ry
     estimated scf accuracy    <       0.00010530 Ry

     iteration # 10     ecut=    80.00 Ry     beta= 0.40
     Davidson diagonalization with overlap
     ethr =  1.13E-07,  avg # of iterations =  5.0

     total cpu time spent up to now is    96555.0 secs

     total energy              =    -142.07599830 Ry
     Harris-Foulkes estimate   =    -142.07600242 Ry
     estimated scf accuracy    <       0.00001793 Ry

     iteration # 11     ecut=    80.00 Ry     beta= 0.40
     Davidson diagonalization with overlap
     ethr =  1.93E-08,  avg # of iterations =  3.0

     total cpu time spent up to now is    96578.5 secs

     total energy              =    -142.07600020 Ry
     Harris-Foulkes estimate   =    -142.07600108 Ry
     estimated scf accuracy    <       0.00000287 Ry

     iteration # 12     ecut=    80.00 Ry     beta= 0.40
     Davidson diagonalization with overlap
     ethr =  3.08E-09,  avg # of iterations =  6.0

     total cpu time spent up to now is    96605.4 secs

     total energy              =    -142.07600071 Ry
     Harris-Foulkes estimate   =    -142.07600113 Ry
     estimated scf accuracy    <       0.00000248 Ry

     iteration # 13     ecut=    80.00 Ry     beta= 0.40
     Davidson diagonalization with overlap
     ethr =  2.66E-09,  avg # of iterations =  4.0

     total cpu time spent up to now is    96626.9 secs

     total energy              =    -142.07600060 Ry
     Harris-Foulkes estimate   =    -142.07600083 Ry
     estimated scf accuracy    <       0.00000097 Ry

     iteration # 14     ecut=    80.00 Ry     beta= 0.40
     Davidson diagonalization with overlap
     ethr =  1.04E-09,  avg # of iterations =  4.0

     total cpu time spent up to now is    96648.9 secs

     total energy              =    -142.07600062 Ry
     Harris-Foulkes estimate   =    -142.07600068 Ry
     estimated scf accuracy    <       0.00000007 Ry

     iteration # 15     ecut=    80.00 Ry     beta= 0.40
     Davidson diagonalization with overlap
     ethr =  7.50E-11,  avg # of iterations =  7.0

     total cpu time spent up to now is    96677.7 secs

     total energy              =    -142.07600057 Ry
     Harris-Foulkes estimate   =    -142.07600059 Ry
     estimated scf accuracy    <       0.00000005 Ry

     iteration # 16     ecut=    80.00 Ry     beta= 0.40
     Davidson diagonalization with overlap
     ethr =  5.68E-11,  avg # of iterations =  4.0

     total cpu time spent up to now is    96700.8 secs

     total energy              =    -142.07600052 Ry
     Harris-Foulkes estimate   =    -142.07600054 Ry
     estimated scf accuracy    <       0.00000003 Ry

     iteration # 17     ecut=    80.00 Ry     beta= 0.40
     Davidson diagonalization with overlap
     ethr =  3.48E-11,  avg # of iterations =  3.0

     total cpu time spent up to now is    96722.2 secs

     End of self-consistent calculation

          k = 0.0000 0.0000 0.0000 (324513 PWs)   bands (ev):

   -11.5959 -10.9754 -10.8660 -10.7531 -10.6934 -10.5869 -10.1831  -9.2669
    -9.2359  -9.1643  -8.9079  -8.7141  -8.7053  -8.3331  -8.1919  -8.1543
    -8.0864  -7.9058  -7.7282  -6.2426  -6.2044  -6.1200  -6.0617  -5.8996
    -5.7351  -5.6665  -5.4649  -5.3223  -5.3007  -5.1904  -5.1584  -4.8528
    -4.4747  -4.4745  -4.1971  -4.1910  -4.1172  -4.0526  -4.0162  -3.9621
    -3.9536  -3.7343  -3.6933  -3.6682  -2.5566  -2.5446  -2.4641  -2.2952
    -2.1824  -2.1528  -1.9201  -1.8508  -1.7319  -1.7223  -1.6610  -1.5614

     the Fermi energy is    -2.4324 ev

!    total energy              =    -142.07600049 Ry
     Harris-Foulkes estimate   =    -142.07600051 Ry
     estimated scf accuracy    <          4.7E-09 Ry

     The total energy is the sum of the following terms:

     one-electron contribution =    -684.10688688 Ry
     hartree contribution      =     350.79877229 Ry
     xc contribution           =     -63.66169818 Ry
     ewald contribution        =     254.92371243 Ry
     smearing contrib. (-TS)   =      -0.02990014 Ry

     convergence has been achieved in  17 iterations

     Forces acting on atoms (cartesian axes, Ry/au):

     atom    1 type  1   force =    -0.00000781   -0.00000015    0.00000000
     atom    2 type  1   force =    -0.00000283   -0.00000876    0.00000000
     atom    3 type  1   force =     0.00000568    0.00000710    0.00000000
     atom    4 type  1   force =    -0.00000664   -0.00000428    0.00000000
     atom    5 type  1   force =     0.00000509   -0.00000241    0.00000000
     atom    6 type  1   force =    -0.00001599   -0.00000168    0.00000000
     atom    7 type  1   force =     0.00000325    0.00000864    0.00000000
     atom    8 type  1   force =     0.00000420    0.00000394    0.00000000
     atom    9 type  1   force =     0.00000363    0.00000862    0.00000000
     atom   10 type  1   force =    -0.00000442    0.00000266    0.00000000
     atom   11 type  1   force =    -0.00000150   -0.00000152    0.00000000
     atom   12 type  1   force =    -0.00000776    0.00000540    0.00000000
     atom   13 type  1   force =     0.00000603    0.00000434    0.00000000
     atom   14 type  1   force =     0.00000850    0.00000315    0.00000000
     atom   15 type  1   force =     0.00001108   -0.00000358    0.00000000
     atom   16 type  1   force =     0.00000097   -0.00000071    0.00000000
     atom   17 type  1   force =    -0.00000199   -0.00000962    0.00000000
     atom   18 type  1   force =    -0.00000291    0.00000016    0.00000000
     atom   19 type  1   force =     0.00000080   -0.00000192    0.00000000
     atom   20 type  1   force =    -0.00000293    0.00001082    0.00000000
     atom   21 type  1   force =     0.00000156   -0.00000739    0.00000000
     atom   22 type  1   force =     0.00000214    0.00000351    0.00000000
     atom   23 type  1   force =    -0.00000454   -0.00000365    0.00000000
     atom   24 type  1   force =    -0.00000143   -0.00000557    0.00000000
     atom   25 type  1   force =     0.00000207   -0.00000116    0.00000000
     atom   26 type  1   force =    -0.00000411   -0.00000939    0.00000000
     atom   27 type  1   force =     0.00000224    0.00000176    0.00000000
     atom   28 type  1   force =    -0.00000646    0.00000663    0.00000000
     atom   29 type  1   force =     0.00000159    0.00000589    0.00000000
     atom   30 type  1   force =     0.00000790   -0.00001075    0.00000000
     atom   31 type  1   force =     0.00000457   -0.00000009    0.00000000

     Total force =     0.000045     Total SCF correction =     0.000063
     SCF correction compared to forces is large: reduce conv_thr to get better values


     Computing stress (Cartesian axis) and pressure

          total   stress  (Ry/bohr**3)                   (kbar)     P=    0.00
   0.00000003  -0.00000000   0.00000000          0.00     -0.00      0.00
  -0.00000000   0.00000005   0.00000000         -0.00      0.01      0.00
   0.00000000   0.00000000  -0.00000001          0.00      0.00     -0.00


     Writing output data file 14al_planar_2x2_vcr.save/
 
     init_run     :     46.88s CPU     52.76s WALL (       2 calls)
     electrons    :  66641.73s CPU  77342.06s WALL (     249 calls)
     update_pot   :   4087.31s CPU   4150.94s WALL (     247 calls)
     forces       :   3633.95s CPU   3763.84s WALL (     249 calls)
     stress       :  10982.78s CPU  11289.45s WALL (     249 calls)

     Called by init_run:
     wfcinit      :     26.34s CPU     31.51s WALL (       2 calls)
     potinit      :      7.94s CPU      8.31s WALL (       2 calls)
     hinit0       :      8.87s CPU      9.05s WALL (       2 calls)

     Called by electrons:
     c_bands      :  54796.32s CPU  63383.10s WALL (    2233 calls)
     sum_band     :   8234.73s CPU   9671.75s WALL (    2233 calls)
     v_of_rho     :   3238.12s CPU   3700.65s WALL (    2418 calls)
     mix_rho      :    584.23s CPU    771.12s WALL (    2233 calls)

     Called by c_bands:
     init_us_2    :   1086.47s CPU   1093.39s WALL (    4468 calls)
     cegterg      :  48388.22s CPU  56957.34s WALL (    2235 calls)

     Called by sum_band:

     Called by *egterg:
     h_psi        :  43923.92s CPU  52240.72s WALL (   14396 calls)
     g_psi        :    116.20s CPU    120.13s WALL (   12159 calls)
     cdiaghg      :    115.23s CPU    116.62s WALL (   14081 calls)

     Called by h_psi:
     h_psi:pot    :  43830.64s CPU  52008.64s WALL (   14396 calls)
     h_psi:calbec :   4404.82s CPU   4423.27s WALL (   14396 calls)
     vloc_psi     :  34521.88s CPU  42668.51s WALL (   14396 calls)
     add_vuspsi   :   4903.71s CPU   4916.71s WALL (   14396 calls)

     General routines
     calbec       :   5092.41s CPU   5113.00s WALL (   15641 calls)
     fft          :   3432.67s CPU   3801.94s WALL (   30716 calls)
     ffts         :    240.94s CPU    266.35s WALL (    2233 calls)
     fftw         :  36166.68s CPU  45387.26s WALL (  867462 calls)
 
     Parallel routines
     fft_scatt_xy :   5616.35s CPU   7535.86s WALL (  900411 calls)
     fft_scatt_yz :  18156.36s CPU  20157.70s WALL (  900411 calls)
 
     PWSCF        :    23h44m CPU        1d    2h52m WALL

 
   This run was terminated on:   3:27: 4  27Nov2020            

=------------------------------------------------------------------------------=
   JOB DONE.
=------------------------------------------------------------------------------=
