
     Program PWSCF v.6.3MaX starts on 25Nov2020 at 18:10:27 

     This program is part of the open-source Quantum ESPRESSO suite
     for quantum simulation of materials; please cite
         "P. Giannozzi et al., J. Phys.:Condens. Matter 21 395502 (2009);
         "P. Giannozzi et al., J. Phys.:Condens. Matter 29 465901 (2017);
          URL http://www.quantum-espresso.org", 
     in publications or presentations arising from this work. More details at
     http://www.quantum-espresso.org/quote

     Parallel version (MPI), running on     8 processors

     MPI processes distributed on     4 nodes
     R & G space division:  proc/nbgrp/npool/nimage =       8
     Waiting for input...
     Reading input from standard input

     Current dimensions of program PWSCF are:
     Max number of different atomic species (ntypx) = 10
     Max number of k-points (npk) =  40000
     Max angular momentum in pseudopotentials (lmaxx) =  3

     Subspace diagonalization in iterative solution of the eigenvalue problem:
     a serial algorithm will be used

 
     Parallelization info
     --------------------
     sticks:   dense  smooth     PW     G-vecs:    dense   smooth      PW
     Min        3123    3123    778               448599   448599   56048
     Max        3124    3124    779               448604   448604   56052
     Sum       24985   24985   6229              3588803  3588803  448403
 


     bravais-lattice index     =            4
     lattice parameter (alat)  =      33.6810  a.u.
     unit-cell volume          =   37130.3117 (a.u.)^3
     number of atoms/cell      =           31
     number of atomic types    =            1
     number of electrons       =        93.00
     number of Kohn-Sham states=           56
     kinetic-energy cutoff     =      80.0000  Ry
     charge density cutoff     =     320.0000  Ry
     convergence threshold     =      1.0E-06
     mixing beta               =       0.4000
     number of iterations used =            8  plain     mixing
     Exchange-correlation      = PBE ( 1  4  3  4 0 0)
     nstep                     =          300


     celldm(1)=  33.680967  celldm(2)=   0.000000  celldm(3)=   1.122133
     celldm(4)=   0.000000  celldm(5)=   0.000000  celldm(6)=   0.000000

     crystal axes: (cart. coord. in units of alat)
               a(1) = (   1.000000   0.000000   0.000000 )  
               a(2) = (  -0.500000   0.866025   0.000000 )  
               a(3) = (   0.000000   0.000000   1.122133 )  

     reciprocal axes: (cart. coord. in units 2 pi/alat)
               b(1) = (  1.000000  0.577350  0.000000 )  
               b(2) = (  0.000000  1.154701  0.000000 )  
               b(3) = (  0.000000  0.000000  0.891160 )  


     PseudoPot. # 1 for Al read from file:
     ./Al.upf
     MD5 check sum: 4974d48a734c9d7d1eb6780a1419d19d
     Pseudo is Norm-conserving + core correction, Zval =  3.0
     Generated using ONCVPSP code by D. R. Hamann
     Using radial grid of 1876 points,  6 beta functions with: 
                l(1) =   0
                l(2) =   0
                l(3) =   1
                l(4) =   1
                l(5) =   2
                l(6) =   2

     atomic species   valence    mass     pseudopotential
        Al             3.00    29.98200     Al( 1.00)

      4 Sym. Ops. (no inversion) found ( 2 have fractional translation)



   Cartesian axes

     site n.     atom                  positions (alat units)
         1           Al  tau(   1) = (   0.1250015   0.0721696   0.0000000  )
         2           Al  tau(   2) = (  -0.1249997   0.3608472   0.0000000  )
         3           Al  tau(   3) = (   0.0000018   0.2886775   0.0000000  )
         4           Al  tau(   4) = (  -0.2499994   0.5773550   0.0000000  )
         5           Al  tau(   5) = (  -0.1249979   0.5051854   0.0000000  )
         6           Al  tau(   6) = (  -0.3749991   0.7938629   0.0000000  )
         7           Al  tau(   7) = (  -0.2499976   0.7216932   0.0000000  )
         8           Al  tau(   8) = (   0.2500011   0.1443403   0.0000000  )
         9           Al  tau(   9) = (   0.3750027   0.0721706   0.0000000  )
        10           Al  tau(  10) = (   0.1250014   0.3608482   0.0000000  )
        11           Al  tau(  11) = (   0.2500030   0.2886785   0.0000000  )
        12           Al  tau(  12) = (   0.0000017   0.5773560   0.0000000  )
        13           Al  tau(  13) = (   0.1250033   0.5051864   0.0000000  )
        14           Al  tau(  14) = (  -0.1249980   0.7938639   0.0000000  )
        15           Al  tau(  15) = (   0.0000036   0.7216942   0.0000000  )
        16           Al  tau(  16) = (   0.5000023   0.1443413   0.0000000  )
        17           Al  tau(  17) = (   0.6250038   0.0721717   0.0000000  )
        18           Al  tau(  18) = (   0.3750026   0.3608492   0.0000000  )
        19           Al  tau(  19) = (   0.5000041   0.2886795   0.0000000  )
        20           Al  tau(  20) = (   0.2500029   0.5773571   0.0000000  )
        21           Al  tau(  21) = (   0.3750044   0.5051874   0.0000000  )
        22           Al  tau(  22) = (   0.1250032   0.7938649   0.0000000  )
        23           Al  tau(  23) = (   0.2500047   0.7216953   0.0000000  )
        24           Al  tau(  24) = (   0.7500035   0.1443423   0.0000000  )
        25           Al  tau(  25) = (   0.8750050   0.0721727   0.0000000  )
        26           Al  tau(  26) = (   0.6250038   0.3608502   0.0000000  )
        27           Al  tau(  27) = (   0.7500053   0.2886805   0.0000000  )
        28           Al  tau(  28) = (   0.5000041   0.5773581   0.0000000  )
        29           Al  tau(  29) = (   0.6250056   0.5051884   0.0000000  )
        30           Al  tau(  30) = (   0.3750044   0.7938660   0.0000000  )
        31           Al  tau(  31) = (   0.5000059   0.7216963   0.0000000  )

     number of k points=     1  Methfessel-Paxton smearing, width (Ry)=  0.0500
                       cart. coord. in units 2pi/alat
        k(    1) = (   0.0000000   0.0000000   0.0000000), wk =   2.0000000

     Dense  grid:  3588803 G-vectors     FFT dimensions: ( 192, 192, 216)

     Estimated max dynamical RAM per process >       1.15 GB

     Estimated total dynamical RAM >       9.23 GB

     Initial potential from superposition of free atoms

     starting charge   92.92414, renormalised to   93.00000

     negative rho (up, down):  9.278E-05 0.000E+00
     Starting wfcs are  124 randomized atomic wfcs

     total cpu time spent up to now is       30.7 secs

     Self-consistent Calculation

     iteration #  1     ecut=    80.00 Ry     beta= 0.40
     Davidson diagonalization with overlap
     ethr =  1.00E-02,  avg # of iterations =  2.0

     negative rho (up, down):  1.124E-06 0.000E+00

     total cpu time spent up to now is       54.3 secs

     total energy              =    -140.64225059 Ry
     Harris-Foulkes estimate   =    -141.23594699 Ry
     estimated scf accuracy    <       1.54828377 Ry

     iteration #  2     ecut=    80.00 Ry     beta= 0.40
     Davidson diagonalization with overlap
     ethr =  1.66E-03,  avg # of iterations =  5.0

     negative rho (up, down):  4.875E-06 0.000E+00

     total cpu time spent up to now is       79.1 secs

     total energy              =    -140.22101017 Ry
     Harris-Foulkes estimate   =    -141.45778644 Ry
     estimated scf accuracy    <       6.72555911 Ry

     iteration #  3     ecut=    80.00 Ry     beta= 0.40
     Davidson diagonalization with overlap
     ethr =  1.66E-03,  avg # of iterations =  5.0

     negative rho (up, down):  4.428E-05 0.000E+00

     total cpu time spent up to now is      103.8 secs

     total energy              =    -140.82735234 Ry
     Harris-Foulkes estimate   =    -141.02334825 Ry
     estimated scf accuracy    <       1.17474630 Ry

     iteration #  4     ecut=    80.00 Ry     beta= 0.40
     Davidson diagonalization with overlap
     ethr =  1.26E-03,  avg # of iterations =  1.0

     negative rho (up, down):  7.035E-05 0.000E+00

     total cpu time spent up to now is      121.6 secs

     total energy              =    -140.89937979 Ry
     Harris-Foulkes estimate   =    -140.94430525 Ry
     estimated scf accuracy    <       0.15458611 Ry

     iteration #  5     ecut=    80.00 Ry     beta= 0.40
     Davidson diagonalization with overlap
     ethr =  1.66E-04,  avg # of iterations =  5.0

     negative rho (up, down):  7.954E-05 0.000E+00

     total cpu time spent up to now is      142.8 secs

     total energy              =    -140.91245142 Ry
     Harris-Foulkes estimate   =    -140.95664681 Ry
     estimated scf accuracy    <       0.31815829 Ry

     iteration #  6     ecut=    80.00 Ry     beta= 0.40
     Davidson diagonalization with overlap
     ethr =  1.66E-04,  avg # of iterations =  3.0

     negative rho (up, down):  1.041E-04 0.000E+00

     total cpu time spent up to now is      161.9 secs

     total energy              =    -140.93242961 Ry
     Harris-Foulkes estimate   =    -140.93478769 Ry
     estimated scf accuracy    <       0.01017020 Ry

     iteration #  7     ecut=    80.00 Ry     beta= 0.40
     Davidson diagonalization with overlap
     ethr =  1.09E-05,  avg # of iterations = 11.0

     negative rho (up, down):  1.298E-04 0.000E+00

     total cpu time spent up to now is      193.5 secs

     total energy              =    -140.93558019 Ry
     Harris-Foulkes estimate   =    -140.93677727 Ry
     estimated scf accuracy    <       0.00600266 Ry

     iteration #  8     ecut=    80.00 Ry     beta= 0.40
     Davidson diagonalization with overlap
     ethr =  6.45E-06,  avg # of iterations =  3.0

     negative rho (up, down):  1.329E-04 0.000E+00

     total cpu time spent up to now is      213.9 secs

     total energy              =    -140.93581727 Ry
     Harris-Foulkes estimate   =    -140.93652213 Ry
     estimated scf accuracy    <       0.00362722 Ry

     iteration #  9     ecut=    80.00 Ry     beta= 0.40
     Davidson diagonalization with overlap
     ethr =  3.90E-06,  avg # of iterations =  1.0

     negative rho (up, down):  1.339E-04 0.000E+00

     total cpu time spent up to now is      232.0 secs

     total energy              =    -140.93592253 Ry
     Harris-Foulkes estimate   =    -140.93611344 Ry
     estimated scf accuracy    <       0.00114749 Ry

     iteration # 10     ecut=    80.00 Ry     beta= 0.40
     Davidson diagonalization with overlap
     ethr =  1.23E-06,  avg # of iterations =  4.0

     negative rho (up, down):  1.363E-04 0.000E+00

     total cpu time spent up to now is      253.4 secs

     total energy              =    -140.93603514 Ry
     Harris-Foulkes estimate   =    -140.93612609 Ry
     estimated scf accuracy    <       0.00048435 Ry

     iteration # 11     ecut=    80.00 Ry     beta= 0.40
     Davidson diagonalization with overlap
     ethr =  5.21E-07,  avg # of iterations =  4.0

     negative rho (up, down):  1.373E-04 0.000E+00

     total cpu time spent up to now is      274.8 secs

     total energy              =    -140.93610066 Ry
     Harris-Foulkes estimate   =    -140.93611800 Ry
     estimated scf accuracy    <       0.00007468 Ry

     iteration # 12     ecut=    80.00 Ry     beta= 0.40
     Davidson diagonalization with overlap
     ethr =  8.03E-08,  avg # of iterations =  4.0

     negative rho (up, down):  1.376E-04 0.000E+00

     total cpu time spent up to now is      297.8 secs

     total energy              =    -140.93610825 Ry
     Harris-Foulkes estimate   =    -140.93612345 Ry
     estimated scf accuracy    <       0.00009967 Ry

     iteration # 13     ecut=    80.00 Ry     beta= 0.40
     Davidson diagonalization with overlap
     ethr =  8.03E-08,  avg # of iterations =  3.0

     negative rho (up, down):  1.378E-04 0.000E+00

     total cpu time spent up to now is      316.4 secs

     total energy              =    -140.93611478 Ry
     Harris-Foulkes estimate   =    -140.93611844 Ry
     estimated scf accuracy    <       0.00002154 Ry

     iteration # 14     ecut=    80.00 Ry     beta= 0.40
     Davidson diagonalization with overlap
     ethr =  2.32E-08,  avg # of iterations =  4.0

     negative rho (up, down):  1.380E-04 0.000E+00

     total cpu time spent up to now is      336.9 secs

     total energy              =    -140.93611639 Ry
     Harris-Foulkes estimate   =    -140.93611790 Ry
     estimated scf accuracy    <       0.00000629 Ry

     iteration # 15     ecut=    80.00 Ry     beta= 0.40
     Davidson diagonalization with overlap
     ethr =  6.76E-09,  avg # of iterations =  3.0

     negative rho (up, down):  1.380E-04 0.000E+00

     total cpu time spent up to now is      357.5 secs

     total energy              =    -140.93611698 Ry
     Harris-Foulkes estimate   =    -140.93611735 Ry
     estimated scf accuracy    <       0.00000120 Ry

     iteration # 16     ecut=    80.00 Ry     beta= 0.40
     Davidson diagonalization with overlap
     ethr =  1.29E-09,  avg # of iterations =  5.0

     negative rho (up, down):  1.382E-04 0.000E+00

     total cpu time spent up to now is      382.4 secs

     total energy              =    -140.93611690 Ry
     Harris-Foulkes estimate   =    -140.93611731 Ry
     estimated scf accuracy    <       0.00000256 Ry

     iteration # 17     ecut=    80.00 Ry     beta= 0.40
     Davidson diagonalization with overlap
     ethr =  1.29E-09,  avg # of iterations =  3.0

     negative rho (up, down):  1.382E-04 0.000E+00

     total cpu time spent up to now is      401.4 secs

     End of self-consistent calculation

          k = 0.0000 0.0000 0.0000 (448403 PWs)   bands (ev):

    -9.9529  -9.4485  -9.4331  -9.4326  -9.4260  -9.4255  -9.1459  -8.4049
    -8.4047  -8.3882  -8.3881  -8.3796  -8.3032  -8.2571  -8.2569  -7.5864
    -6.9325  -6.9324  -6.8233  -6.4865  -6.4772  -6.4771  -6.3701  -6.3700
    -5.4639  -4.8435  -4.8435  -4.8370  -4.7356  -4.7354  -4.4781  -4.4681
    -4.4428  -4.4428  -4.1224  -4.1222  -3.9779  -3.4714  -3.4688  -3.4685
    -3.4577  -3.4574  -3.4018  -3.2746  -3.2742  -3.2224  -3.2073  -2.9743
    -2.9653  -2.9652  -2.9388  -2.5200  -2.5197  -2.4488  -2.4483  -2.4313

     the Fermi energy is    -3.0910 ev

!    total energy              =    -140.93611683 Ry
     Harris-Foulkes estimate   =    -140.93611699 Ry
     estimated scf accuracy    <       0.00000018 Ry

     The total energy is the sum of the following terms:

     one-electron contribution =    -502.03543340 Ry
     hartree contribution      =     259.76272669 Ry
     xc contribution           =     -61.33572618 Ry
     ewald contribution        =     162.75328960 Ry
     smearing contrib. (-TS)   =      -0.08097354 Ry

     convergence has been achieved in  17 iterations

     negative rho (up, down):  1.382E-04 0.000E+00

     Forces acting on atoms (cartesian axes, Ry/au):

     atom    1 type  1   force =    -0.01309783    0.00758555    0.00000000
     atom    2 type  1   force =    -0.00315512    0.00111119    0.00000000
     atom    3 type  1   force =     0.00000000   -0.01513058    0.00000000
     atom    4 type  1   force =     0.00203942    0.00117844    0.00000000
     atom    5 type  1   force =    -0.00159200   -0.00518567    0.00000000
     atom    6 type  1   force =    -0.00060582   -0.00330281    0.00000000
     atom    7 type  1   force =    -0.00527951    0.00122426    0.00000000
     atom    8 type  1   force =     0.00252945    0.00218436    0.00000000
     atom    9 type  1   force =    -0.00369203    0.00398687    0.00000000
     atom   10 type  1   force =     0.00315512    0.00111119    0.00000000
     atom   11 type  1   force =    -0.00108878   -0.00064256    0.00000000
     atom   12 type  1   force =     0.00000000    0.00216677    0.00000000
     atom   13 type  1   force =     0.00159200   -0.00518567    0.00000000
     atom   14 type  1   force =     0.00186883   -0.00110990    0.00000000
     atom   15 type  1   force =     0.00000000    0.00000664    0.00000000
     atom   16 type  1   force =     0.00000000   -0.00235745    0.00000000
     atom   17 type  1   force =     0.00369203    0.00398687    0.00000000
     atom   18 type  1   force =     0.00108996    0.00063499    0.00000000
     atom   19 type  1   force =     0.00000000   -0.00052358    0.00000000
     atom   20 type  1   force =    -0.00203942    0.00117844    0.00000000
     atom   21 type  1   force =    -0.00044479    0.00025823    0.00000000
     atom   22 type  1   force =    -0.00186883   -0.00110990    0.00000000
     atom   23 type  1   force =     0.00527951    0.00122426    0.00000000
     atom   24 type  1   force =    -0.00252945    0.00218436    0.00000000
     atom   25 type  1   force =     0.01309783    0.00758555    0.00000000
     atom   26 type  1   force =    -0.00108996    0.00063499    0.00000000
     atom   27 type  1   force =     0.00108878   -0.00064256    0.00000000
     atom   28 type  1   force =     0.00000000   -0.00126521    0.00000000
     atom   29 type  1   force =     0.00044479    0.00025823    0.00000000
     atom   30 type  1   force =     0.00060582   -0.00330281    0.00000000
     atom   31 type  1   force =     0.00000000    0.00125748    0.00000000

     Total force =     0.031180     Total SCF correction =     0.000318


     Computing stress (Cartesian axis) and pressure


     negative rho (up, down):  1.382E-04 0.000E+00
          total   stress  (Ry/bohr**3)                   (kbar)     P=   -0.57
  -0.00000579   0.00000000   0.00000000         -0.85      0.00      0.00
   0.00000000  -0.00000578   0.00000000          0.00     -0.85      0.00
   0.00000000  -0.00000000   0.00000000          0.00     -0.00      0.00


     BFGS Geometry Optimization

     number of scf cycles    =   1
     number of bfgs steps    =   0

     enthalpy new            =    -140.9361168251 Ry

     new trust radius        =       0.0151358444 bohr
     new conv_thr            =       0.0000010000 Ry

     new unit-cell volume =  37119.56724 a.u.^3 (  5500.55229 Ang^3 )
     density =      0.28059 g/cm^3

CELL_PARAMETERS (alat= 33.68096681)
   0.999855172   0.000000000   0.000000000
  -0.499927586   0.865900207   0.000000000
   0.000000000   0.000000000   1.122132950

ATOMIC_POSITIONS (angstrom)
Al       2.220674005   1.290120998   0.000000000
Al      -2.229241942   6.431109145   0.000000000
Al       0.000032094   5.136407124   0.000000000
Al      -4.454065487  10.289449973   0.000000000
Al      -2.228382213   8.999974232   0.000000000
Al      -6.683037068  14.145384191   0.000000000
Al      -4.457905258  12.861670980   0.000000000
Al       4.456513216   2.573389903   0.000000000
Al       6.680826086   1.288235127   0.000000000
Al       2.229272278   6.431127339   0.000000000
Al       4.454631491   5.144090938   0.000000000
Al       0.000030923  10.289991096   0.000000000
Al       2.228477910   8.999992425   0.000000000
Al      -2.226552258  14.146562656   0.000000000
Al       0.000063603  12.861044927   0.000000000
Al       8.910350351   2.571005022   0.000000000
Al      11.139908467   1.288253320   0.000000000
Al       6.683355068   6.430893572   0.000000000
Al       8.910383031   5.144172085   0.000000000
Al       4.454127333  10.289486360   0.000000000
Al       6.682575714   9.002890989   0.000000000
Al       2.226645611  14.146580850   0.000000000
Al       4.458032463  12.861707366   0.000000000
Al      13.364187486   2.573426289   0.000000000
Al      15.600060549   1.290175578   0.000000000
Al      11.137377142   6.430911765   0.000000000
Al      13.366134571   5.144127325   0.000000000
Al       8.910381859  10.288211617   0.000000000
Al      11.138221857   9.002909182   0.000000000
Al       6.683130422  14.145438771   0.000000000
Al       8.910414540  12.861743136   0.000000000



     Writing output data file 1al_planar_2x2_vcr.save/
     NEW-OLD atomic charge density approx. for the potential

     negative rho (up, down):  1.382E-04 0.000E+00
     extrapolated charge   92.97310, renormalised to   93.00000

     total cpu time spent up to now is      481.2 secs

     Self-consistent Calculation

     iteration #  1     ecut=    80.00 Ry     beta= 0.40
     Davidson diagonalization with overlap
     ethr =  1.00E-06,  avg # of iterations =  4.0

     Threshold (ethr) on eigenvalues was too large:
     Diagonalizing with lowered threshold

     Davidson diagonalization with overlap
     ethr =  7.54E-08,  avg # of iterations =  5.0

     negative rho (up, down):  1.384E-04 0.000E+00

     total cpu time spent up to now is      527.0 secs

     total energy              =    -140.93707173 Ry
     Harris-Foulkes estimate   =    -141.07023559 Ry
     estimated scf accuracy    <       0.00009159 Ry

     iteration #  2     ecut=    80.00 Ry     beta= 0.40
     Davidson diagonalization with overlap
     ethr =  9.85E-08,  avg # of iterations =  6.0

     negative rho (up, down):  1.384E-04 0.000E+00

     total cpu time spent up to now is      553.1 secs

     total energy              =    -140.93703158 Ry
     Harris-Foulkes estimate   =    -140.93721390 Ry
     estimated scf accuracy    <       0.00145675 Ry

     iteration #  3     ecut=    80.00 Ry     beta= 0.40
     Davidson diagonalization with overlap
     ethr =  9.85E-08,  avg # of iterations =  5.0

     negative rho (up, down):  1.383E-04 0.000E+00

     total cpu time spent up to now is      576.9 secs

     total energy              =    -140.93711553 Ry
     Harris-Foulkes estimate   =    -140.93712081 Ry
     estimated scf accuracy    <       0.00001867 Ry

     iteration #  4     ecut=    80.00 Ry     beta= 0.40
     Davidson diagonalization with overlap
     ethr =  2.01E-08,  avg # of iterations =  4.0

     negative rho (up, down):  1.382E-04 0.000E+00

     total cpu time spent up to now is      598.0 secs

     total energy              =    -140.93711686 Ry
     Harris-Foulkes estimate   =    -140.93711943 Ry
     estimated scf accuracy    <       0.00001123 Ry

     iteration #  5     ecut=    80.00 Ry     beta= 0.40
     Davidson diagonalization with overlap
     ethr =  1.21E-08,  avg # of iterations =  4.0

     negative rho (up, down):  1.382E-04 0.000E+00

     total cpu time spent up to now is      618.0 secs

     total energy              =    -140.93711701 Ry
     Harris-Foulkes estimate   =    -140.93712011 Ry
     estimated scf accuracy    <       0.00002049 Ry

     iteration #  6     ecut=    80.00 Ry     beta= 0.40
     Davidson diagonalization with overlap
     ethr =  1.21E-08,  avg # of iterations =  2.0

     negative rho (up, down):  1.381E-04 0.000E+00

     total cpu time spent up to now is      635.6 secs

     End of self-consistent calculation

          k = 0.0000 0.0000 0.0000 (448403 PWs)   bands (ev):

    -9.9529  -9.4485  -9.4330  -9.4327  -9.4250  -9.4246  -9.1435  -8.4037
    -8.4034  -8.3841  -8.3841  -8.3822  -8.3044  -8.2541  -8.2539  -7.5846
    -6.9319  -6.9318  -6.8225  -6.4817  -6.4771  -6.4770  -6.3717  -6.3717
    -5.4688  -4.8392  -4.8391  -4.8347  -4.7360  -4.7358  -4.4762  -4.4669
    -4.4426  -4.4426  -4.1246  -4.1243  -3.9777  -3.4712  -3.4674  -3.4670
    -3.4580  -3.4577  -3.3996  -3.2728  -3.2725  -3.2208  -3.2169  -2.9697
    -2.9631  -2.9630  -2.9406  -2.5168  -2.5165  -2.4453  -2.4449  -2.4331

     the Fermi energy is    -3.0903 ev

!    total energy              =    -140.93711848 Ry
     Harris-Foulkes estimate   =    -140.93711873 Ry
     estimated scf accuracy    <       0.00000087 Ry

     The total energy is the sum of the following terms:

     one-electron contribution =    -502.12232542 Ry
     hartree contribution      =     259.80429611 Ry
     xc contribution           =     -61.33340477 Ry
     ewald contribution        =     162.79494314 Ry
     smearing contrib. (-TS)   =      -0.08062754 Ry

     convergence has been achieved in   6 iterations

     negative rho (up, down):  1.381E-04 0.000E+00

     Forces acting on atoms (cartesian axes, Ry/au):

     atom    1 type  1   force =    -0.01294398    0.00749701    0.00000000
     atom    2 type  1   force =    -0.00207087    0.00039589    0.00000000
     atom    3 type  1   force =     0.00000000   -0.01496612    0.00000000
     atom    4 type  1   force =     0.00199411    0.00115208    0.00000000
     atom    5 type  1   force =    -0.00118447   -0.00444499    0.00000000
     atom    6 type  1   force =    -0.00068634   -0.00199814    0.00000000
     atom    7 type  1   force =    -0.00444579    0.00120812    0.00000000
     atom    8 type  1   force =     0.00137288    0.00160752    0.00000000
     atom    9 type  1   force =    -0.00325728    0.00327340    0.00000000
     atom   10 type  1   force =     0.00207087    0.00039589    0.00000000
     atom   11 type  1   force =    -0.00076766   -0.00047099    0.00000000
     atom   12 type  1   force =     0.00000000    0.00160606    0.00000000
     atom   13 type  1   force =     0.00118447   -0.00444499    0.00000000
     atom   14 type  1   force =     0.00139203   -0.00081581    0.00000000
     atom   15 type  1   force =     0.00000000    0.00000281    0.00000000
     atom   16 type  1   force =     0.00000000   -0.00229021    0.00000000
     atom   17 type  1   force =     0.00325728    0.00327340    0.00000000
     atom   18 type  1   force =     0.00086512    0.00048822    0.00000000
     atom   19 type  1   force =     0.00000000   -0.00077554    0.00000000
     atom   20 type  1   force =    -0.00199411    0.00115208    0.00000000
     atom   21 type  1   force =    -0.00064528    0.00037532    0.00000000
     atom   22 type  1   force =    -0.00139203   -0.00081581    0.00000000
     atom   23 type  1   force =     0.00444579    0.00120812    0.00000000
     atom   24 type  1   force =    -0.00137288    0.00160752    0.00000000
     atom   25 type  1   force =     0.01294398    0.00749701    0.00000000
     atom   26 type  1   force =    -0.00086512    0.00048822    0.00000000
     atom   27 type  1   force =     0.00076766   -0.00047099    0.00000000
     atom   28 type  1   force =     0.00000000   -0.00100997    0.00000000
     atom   29 type  1   force =     0.00064528    0.00037532    0.00000000
     atom   30 type  1   force =     0.00068634   -0.00199814    0.00000000
     atom   31 type  1   force =     0.00000000    0.00089771    0.00000000

     Total force =     0.029265     Total SCF correction =     0.000538


     Computing stress (Cartesian axis) and pressure


     negative rho (up, down):  1.381E-04 0.000E+00
          total   stress  (Ry/bohr**3)                   (kbar)     P=   -0.58
  -0.00000593   0.00000000   0.00000000         -0.87      0.00      0.00
   0.00000000  -0.00000592   0.00000000          0.00     -0.87      0.00
   0.00000000   0.00000000  -0.00000006          0.00      0.00     -0.01


     number of scf cycles    =   2
     number of bfgs steps    =   1

     enthalpy old            =    -140.9361168251 Ry
     enthalpy new            =    -140.9371184798 Ry

     CASE: enthalpy_new < enthalpy_old


     WARNING: bfgs curvature condition failed, Theta= 0.853
     new trust radius        =       0.0227004800 bohr
     new conv_thr            =       0.0000010000 Ry

     new unit-cell volume =  37103.11000 a.u.^3 (  5498.11358 Ang^3 )
     density =      0.28071 g/cm^3

CELL_PARAMETERS (alat= 33.68096681)
   0.999633361   0.000000000   0.000000000
  -0.499816680   0.865708355   0.000000000
   0.000000000   0.000000000   1.122132950

ATOMIC_POSITIONS (angstrom)
Al       2.209790554   1.295853226   0.000000000
Al      -2.230739877   6.430223402   0.000000000
Al       0.000032087   5.123259168   0.000000000
Al      -4.451469875  10.288098987   0.000000000
Al      -2.228961259   8.994197670   0.000000000
Al      -6.682077818  14.140247062   0.000000000
Al      -4.460728418  12.859791679   0.000000000
Al       4.456981844   2.574283912   0.000000000
Al       6.676605832   1.290787563   0.000000000
Al       2.230770207   6.430241592   0.000000000
Al       4.452929831   5.142521406   0.000000000
Al       0.000030916  10.289169195   0.000000000
Al       2.229056935   8.994215859   0.000000000
Al      -2.224797487  14.142684812   0.000000000
Al       0.000063589  12.858198825   0.000000000
Al       8.908373649   2.568584443   0.000000000
Al      11.140175311   1.290805752   0.000000000
Al       6.682633724   6.429904550   0.000000000
Al       8.908406322   5.142491113   0.000000000
Al       4.451531707  10.288135366   0.000000000
Al       6.680640074   9.001159701   0.000000000
Al       2.224890819  14.142703002   0.000000000
Al       4.460855596  12.859828058   0.000000000
Al      13.359765455   2.574320291   0.000000000
Al      15.606990589   1.295907794   0.000000000
Al      11.134145076   6.429922739   0.000000000
Al      13.363882814   5.142557784   0.000000000
Al       8.908405151  10.285045597   0.000000000
Al      11.136204072   9.001177890   0.000000000
Al       6.682171151  14.140301630   0.000000000
Al       8.908437824  12.859722832   0.000000000



     Writing output data file 1al_planar_2x2_vcr.save/
     NEW-OLD atomic charge density approx. for the potential

     negative rho (up, down):  1.381E-04 0.000E+00
     extrapolated charge   92.95878, renormalised to   93.00000

     total cpu time spent up to now is      714.9 secs

     Self-consistent Calculation

     iteration #  1     ecut=    80.00 Ry     beta= 0.40
     Davidson diagonalization with overlap
     ethr =  1.00E-06,  avg # of iterations =  4.0

     negative rho (up, down):  1.384E-04 0.000E+00

     total cpu time spent up to now is      743.8 secs

     total energy              =    -140.93840885 Ry
     Harris-Foulkes estimate   =    -141.14251399 Ry
     estimated scf accuracy    <       0.00013671 Ry

     iteration #  2     ecut=    80.00 Ry     beta= 0.40
     Davidson diagonalization with overlap
     ethr =  1.47E-07,  avg # of iterations =  7.0

     negative rho (up, down):  1.383E-04 0.000E+00

     total cpu time spent up to now is      772.2 secs

     total energy              =    -140.93836336 Ry
     Harris-Foulkes estimate   =    -140.93860478 Ry
     estimated scf accuracy    <       0.00184389 Ry

     iteration #  3     ecut=    80.00 Ry     beta= 0.40
     Davidson diagonalization with overlap
     ethr =  1.47E-07,  avg # of iterations =  4.0

     negative rho (up, down):  1.383E-04 0.000E+00

     total cpu time spent up to now is      795.1 secs

     total energy              =    -140.93848045 Ry
     Harris-Foulkes estimate   =    -140.93848917 Ry
     estimated scf accuracy    <       0.00003923 Ry

     iteration #  4     ecut=    80.00 Ry     beta= 0.40
     Davidson diagonalization with overlap
     ethr =  4.22E-08,  avg # of iterations =  5.0

     negative rho (up, down):  1.382E-04 0.000E+00

     total cpu time spent up to now is      814.5 secs

     total energy              =    -140.93848098 Ry
     Harris-Foulkes estimate   =    -140.93848673 Ry
     estimated scf accuracy    <       0.00002484 Ry

     iteration #  5     ecut=    80.00 Ry     beta= 0.40
     Davidson diagonalization with overlap
     ethr =  2.67E-08,  avg # of iterations =  4.0

     negative rho (up, down):  1.381E-04 0.000E+00

     total cpu time spent up to now is      833.8 secs

     total energy              =    -140.93848317 Ry
     Harris-Foulkes estimate   =    -140.93848626 Ry
     estimated scf accuracy    <       0.00001839 Ry

     iteration #  6     ecut=    80.00 Ry     beta= 0.40
     Davidson diagonalization with overlap
     ethr =  1.98E-08,  avg # of iterations =  1.0

     negative rho (up, down):  1.380E-04 0.000E+00

     total cpu time spent up to now is      851.4 secs

     total energy              =    -140.93848487 Ry
     Harris-Foulkes estimate   =    -140.93848517 Ry
     estimated scf accuracy    <       0.00000204 Ry

     iteration #  7     ecut=    80.00 Ry     beta= 0.40
     Davidson diagonalization with overlap
     ethr =  2.19E-09,  avg # of iterations =  5.0

     negative rho (up, down):  1.380E-04 0.000E+00

     total cpu time spent up to now is      875.0 secs

     total energy              =    -140.93848491 Ry
     Harris-Foulkes estimate   =    -140.93848581 Ry
     estimated scf accuracy    <       0.00000623 Ry

     iteration #  8     ecut=    80.00 Ry     beta= 0.40
     Davidson diagonalization with overlap
     ethr =  2.19E-09,  avg # of iterations =  3.0

     negative rho (up, down):  1.380E-04 0.000E+00

     total cpu time spent up to now is      894.8 secs

     End of self-consistent calculation

          k = 0.0000 0.0000 0.0000 (448403 PWs)   bands (ev):

    -9.9542  -9.4495  -9.4355  -9.4352  -9.4239  -9.4237  -9.1416  -8.4034
    -8.4032  -8.3870  -8.3801  -8.3801  -8.3072  -8.2510  -8.2508  -7.5837
    -6.9325  -6.9324  -6.8228  -6.4780  -6.4780  -6.4767  -6.3750  -6.3750
    -5.4773  -4.8346  -4.8345  -4.8327  -4.7375  -4.7373  -4.4749  -4.4663
    -4.4437  -4.4436  -4.1292  -4.1290  -3.9783  -3.4715  -3.4669  -3.4665
    -3.4588  -3.4585  -3.3976  -3.2716  -3.2712  -3.2327  -3.2197  -2.9652
    -2.9611  -2.9610  -2.9437  -2.5136  -2.5132  -2.4414  -2.4412  -2.4366

     the Fermi energy is    -3.0906 ev

!    total energy              =    -140.93848489 Ry
     Harris-Foulkes estimate   =    -140.93848543 Ry
     estimated scf accuracy    <       0.00000069 Ry

     The total energy is the sum of the following terms:

     one-electron contribution =    -502.26193902 Ry
     hartree contribution      =     259.87587306 Ry
     xc contribution           =     -61.33166875 Ry
     ewald contribution        =     162.85939532 Ry
     smearing contrib. (-TS)   =      -0.08014549 Ry

     convergence has been achieved in   8 iterations

     negative rho (up, down):  1.380E-04 0.000E+00

     Forces acting on atoms (cartesian axes, Ry/au):

     atom    1 type  1   force =    -0.01281935    0.00739729    0.00000000
     atom    2 type  1   force =    -0.00059581   -0.00058065    0.00000000
     atom    3 type  1   force =     0.00000000   -0.01480454    0.00000000
     atom    4 type  1   force =     0.00192738    0.00111392    0.00000000
     atom    5 type  1   force =    -0.00067514   -0.00342036    0.00000000
     atom    6 type  1   force =    -0.00079648   -0.00023153    0.00000000
     atom    7 type  1   force =    -0.00331636    0.00112832    0.00000000
     atom    8 type  1   force =    -0.00019893    0.00080032    0.00000000
     atom    9 type  1   force =    -0.00264775    0.00230497    0.00000000
     atom   10 type  1   force =     0.00059581   -0.00058065    0.00000000
     atom   11 type  1   force =    -0.00037255   -0.00021543    0.00000000
     atom   12 type  1   force =    -0.00000000    0.00086973    0.00000000
     atom   13 type  1   force =     0.00067514   -0.00342036    0.00000000
     atom   14 type  1   force =     0.00075643   -0.00044870    0.00000000
     atom   15 type  1   force =    -0.00000000    0.00000218    0.00000000
     atom   16 type  1   force =     0.00000000   -0.00220532    0.00000000
     atom   17 type  1   force =     0.00264775    0.00230497    0.00000000
     atom   18 type  1   force =     0.00061310    0.00034666    0.00000000
     atom   19 type  1   force =     0.00000000   -0.00105184    0.00000000
     atom   20 type  1   force =    -0.00192738    0.00111392    0.00000000
     atom   21 type  1   force =    -0.00091365    0.00052803    0.00000000
     atom   22 type  1   force =    -0.00075643   -0.00044870    0.00000000
     atom   23 type  1   force =     0.00331636    0.00112832    0.00000000
     atom   24 type  1   force =     0.00019893    0.00080032    0.00000000
     atom   25 type  1   force =     0.01281935    0.00739729    0.00000000
     atom   26 type  1   force =    -0.00061310    0.00034666    0.00000000
     atom   27 type  1   force =     0.00037255   -0.00021543    0.00000000
     atom   28 type  1   force =     0.00000000   -0.00070901    0.00000000
     atom   29 type  1   force =     0.00091365    0.00052803    0.00000000
     atom   30 type  1   force =     0.00079648   -0.00023153    0.00000000
     atom   31 type  1   force =    -0.00000000    0.00045317    0.00000000

     Total force =     0.027521     Total SCF correction =     0.000602


     Computing stress (Cartesian axis) and pressure


     negative rho (up, down):  1.380E-04 0.000E+00
          total   stress  (Ry/bohr**3)                   (kbar)     P=   -0.60
  -0.00000610   0.00000000  -0.00000000         -0.90      0.00     -0.00
   0.00000000  -0.00000609   0.00000000          0.00     -0.90      0.00
   0.00000000  -0.00000000   0.00000003          0.00     -0.00      0.00


     number of scf cycles    =   3
     number of bfgs steps    =   2

     enthalpy old            =    -140.9371184798 Ry
     enthalpy new            =    -140.9384848896 Ry

     CASE: enthalpy_new < enthalpy_old

     new trust radius        =       0.0340431756 bohr
     new conv_thr            =       0.0000010000 Ry

     new unit-cell volume =  37077.92663 a.u.^3 (  5494.38179 Ang^3 )
     density =      0.28090 g/cm^3

CELL_PARAMETERS (alat= 33.68096681)
   0.999293716   0.000000000   0.000000000
  -0.499646858   0.865414806   0.000000000
   0.000000000   0.000000000   1.122132950

ATOMIC_POSITIONS (angstrom)
Al       2.193447911   1.304425494   0.000000000
Al      -2.232066294   6.428246922   0.000000000
Al       0.000032076   5.103513419   0.000000000
Al      -4.447575832  10.285986732   0.000000000
Al      -2.229507100   8.986085059   0.000000000
Al      -6.680665118  14.133533330   0.000000000
Al      -4.464256101  12.856841166   0.000000000
Al       4.456684774   2.575113998   0.000000000
Al       6.670590259   1.294024632   0.000000000
Al       2.232096613   6.428265105   0.000000000
Al       4.450585353   5.140290203   0.000000000
Al       0.000030905  10.287420758   0.000000000
Al       2.229602744   8.986103243   0.000000000
Al      -2.222536266  14.136995422   0.000000000
Al       0.000063567  12.853843824   0.000000000
Al       8.905346859   2.564975598   0.000000000
Al      11.140137292   1.294042816   0.000000000
Al       6.681356713   6.428296199   0.000000000
Al       8.905379521   5.139762802   0.000000000
Al       4.447637642  10.286023099   0.000000000
Al       6.677519983   8.998599508   0.000000000
Al       2.222629567  14.137013605   0.000000000
Al       4.464383235  12.856877532   0.000000000
Al      13.354008944   2.575150364   0.000000000
Al      15.617279640   1.304480043   0.000000000
Al      11.129368495   6.428314382   0.000000000
Al      13.360173689   5.140326569   0.000000000
Al       8.905378350  10.280406679   0.000000000
Al      11.133270549   8.998617691   0.000000000
Al       6.680758419  14.133587879   0.000000000
Al       8.905411012  12.856337963   0.000000000



     Writing output data file 1al_planar_2x2_vcr.save/
     NEW-OLD atomic charge density approx. for the potential

     negative rho (up, down):  1.381E-04 0.000E+00
     extrapolated charge   92.93689, renormalised to   93.00000

     total cpu time spent up to now is      974.3 secs

     Self-consistent Calculation

     iteration #  1     ecut=    80.00 Ry     beta= 0.40
     Davidson diagonalization with overlap
     ethr =  1.00E-06,  avg # of iterations =  5.0

     negative rho (up, down):  1.385E-04 0.000E+00

     total cpu time spent up to now is     1006.3 secs

     total energy              =    -140.94024840 Ry
     Harris-Foulkes estimate   =    -141.25290152 Ry
     estimated scf accuracy    <       0.00019372 Ry

     iteration #  2     ecut=    80.00 Ry     beta= 0.40
     Davidson diagonalization with overlap
     ethr =  2.08E-07,  avg # of iterations =  5.0

     negative rho (up, down):  1.384E-04 0.000E+00

     total cpu time spent up to now is     1033.3 secs

     total energy              =    -140.94024006 Ry
     Harris-Foulkes estimate   =    -140.94045495 Ry
     estimated scf accuracy    <       0.00140446 Ry

     iteration #  3     ecut=    80.00 Ry     beta= 0.40
     Davidson diagonalization with overlap
     ethr =  2.08E-07,  avg # of iterations =  4.0

     negative rho (up, down):  1.383E-04 0.000E+00

     total cpu time spent up to now is     1055.1 secs

     total energy              =    -140.94034567 Ry
     Harris-Foulkes estimate   =    -140.94036949 Ry
     estimated scf accuracy    <       0.00014425 Ry

     iteration #  4     ecut=    80.00 Ry     beta= 0.40
     Davidson diagonalization with overlap
     ethr =  1.55E-07,  avg # of iterations =  1.0

     negative rho (up, down):  1.382E-04 0.000E+00

     total cpu time spent up to now is     1072.7 secs

     total energy              =    -140.94035197 Ry
     Harris-Foulkes estimate   =    -140.94035571 Ry
     estimated scf accuracy    <       0.00001600 Ry

     iteration #  5     ecut=    80.00 Ry     beta= 0.40
     Davidson diagonalization with overlap
     ethr =  1.72E-08,  avg # of iterations =  5.0

     negative rho (up, down):  1.381E-04 0.000E+00

     total cpu time spent up to now is     1096.1 secs

     total energy              =    -140.94035028 Ry
     Harris-Foulkes estimate   =    -140.94035981 Ry
     estimated scf accuracy    <       0.00005911 Ry

     iteration #  6     ecut=    80.00 Ry     beta= 0.40
     Davidson diagonalization with overlap
     ethr =  1.72E-08,  avg # of iterations =  4.0

     negative rho (up, down):  1.380E-04 0.000E+00

     total cpu time spent up to now is     1117.7 secs

     total energy              =    -140.94035526 Ry
     Harris-Foulkes estimate   =    -140.94035694 Ry
     estimated scf accuracy    <       0.00001403 Ry

     iteration #  7     ecut=    80.00 Ry     beta= 0.40
     Davidson diagonalization with overlap
     ethr =  1.51E-08,  avg # of iterations =  2.0

     negative rho (up, down):  1.380E-04 0.000E+00

     total cpu time spent up to now is     1135.6 secs

     total energy              =    -140.94035580 Ry
     Harris-Foulkes estimate   =    -140.94035656 Ry
     estimated scf accuracy    <       0.00000446 Ry

     iteration #  8     ecut=    80.00 Ry     beta= 0.40
     Davidson diagonalization with overlap
     ethr =  4.80E-09,  avg # of iterations =  2.0

     negative rho (up, down):  1.380E-04 0.000E+00

     total cpu time spent up to now is     1153.6 secs

     total energy              =    -140.94035628 Ry
     Harris-Foulkes estimate   =    -140.94035641 Ry
     estimated scf accuracy    <       0.00000116 Ry

     iteration #  9     ecut=    80.00 Ry     beta= 0.40
     Davidson diagonalization with overlap
     ethr =  1.24E-09,  avg # of iterations =  4.0

     negative rho (up, down):  1.379E-04 0.000E+00

     total cpu time spent up to now is     1174.7 secs

     End of self-consistent calculation

          k = 0.0000 0.0000 0.0000 (448403 PWs)   bands (ev):

    -9.9552  -9.4501  -9.4388  -9.4386  -9.4210  -9.4209  -9.1384  -8.4025
    -8.4023  -8.3922  -8.3745  -8.3744  -8.3098  -8.2451  -8.2450  -7.5818
    -6.9326  -6.9326  -6.8228  -6.4781  -6.4780  -6.4692  -6.3782  -6.3781
    -5.4887  -4.8292  -4.8275  -4.8274  -4.7381  -4.7379  -4.4721  -4.4644
    -4.4443  -4.4442  -4.1351  -4.1348  -3.9787  -3.4714  -3.4670  -3.4667
    -3.4580  -3.4577  -3.3938  -3.2688  -3.2684  -3.2555  -3.2179  -2.9601
    -2.9573  -2.9572  -2.9440  -2.5083  -2.5080  -2.4403  -2.4356  -2.4356

     the Fermi energy is    -3.0901 ev

!    total energy              =    -140.94035626 Ry
     Harris-Foulkes estimate   =    -140.94035648 Ry
     estimated scf accuracy    <       0.00000035 Ry

     The total energy is the sum of the following terms:

     one-electron contribution =    -502.47053288 Ry
     hartree contribution      =     259.97885160 Ry
     xc contribution           =     -61.32829361 Ry
     ewald contribution        =     162.95892615 Ry
     smearing contrib. (-TS)   =      -0.07930753 Ry

     convergence has been achieved in   9 iterations

     negative rho (up, down):  1.379E-04 0.000E+00

     Forces acting on atoms (cartesian axes, Ry/au):

     atom    1 type  1   force =    -0.01277629    0.00736454    0.00000000
     atom    2 type  1   force =     0.00134320   -0.00182684    0.00000000
     atom    3 type  1   force =     0.00000000   -0.01474140    0.00000000
     atom    4 type  1   force =     0.00188207    0.00108223    0.00000000
     atom    5 type  1   force =    -0.00002803   -0.00217145    0.00000000
     atom    6 type  1   force =    -0.00089187    0.00208649    0.00000000
     atom    7 type  1   force =    -0.00191362    0.00105556    0.00000000
     atom    8 type  1   force =    -0.00223303   -0.00025888    0.00000000
     atom    9 type  1   force =    -0.00188043    0.00112727    0.00000000
     atom   10 type  1   force =    -0.00134320   -0.00182684    0.00000000
     atom   11 type  1   force =     0.00008979    0.00005525    0.00000000
     atom   12 type  1   force =     0.00000000   -0.00005947    0.00000000
     atom   13 type  1   force =     0.00002803   -0.00217145    0.00000000
     atom   14 type  1   force =    -0.00004652    0.00002780    0.00000000
     atom   15 type  1   force =     0.00000000   -0.00000301    0.00000000
     atom   16 type  1   force =     0.00000000   -0.00214582    0.00000000
     atom   17 type  1   force =     0.00188043    0.00112727    0.00000000
     atom   18 type  1   force =     0.00028524    0.00014001    0.00000000
     atom   19 type  1   force =     0.00000000   -0.00141536    0.00000000
     atom   20 type  1   force =    -0.00188207    0.00108223    0.00000000
     atom   21 type  1   force =    -0.00123296    0.00071202    0.00000000
     atom   22 type  1   force =     0.00004652    0.00002780    0.00000000
     atom   23 type  1   force =     0.00191362    0.00105556    0.00000000
     atom   24 type  1   force =     0.00223303   -0.00025888    0.00000000
     atom   25 type  1   force =     0.01277629    0.00736454    0.00000000
     atom   26 type  1   force =    -0.00028524    0.00014001    0.00000000
     atom   27 type  1   force =    -0.00008979    0.00005525    0.00000000
     atom   28 type  1   force =     0.00000000   -0.00034325    0.00000000
     atom   29 type  1   force =     0.00123296    0.00071202    0.00000000
     atom   30 type  1   force =     0.00089187    0.00208649    0.00000000
     atom   31 type  1   force =     0.00000000   -0.00007969    0.00000000

     Total force =     0.027055     Total SCF correction =     0.000375


     Computing stress (Cartesian axis) and pressure


     negative rho (up, down):  1.379E-04 0.000E+00
          total   stress  (Ry/bohr**3)                   (kbar)     P=   -0.62
  -0.00000635   0.00000000   0.00000000         -0.93      0.00      0.00
   0.00000000  -0.00000633  -0.00000000          0.00     -0.93     -0.00
   0.00000000   0.00000000   0.00000004          0.00      0.00      0.01


     number of scf cycles    =   4
     number of bfgs steps    =   3

     enthalpy old            =    -140.9384848896 Ry
     enthalpy new            =    -140.9403562587 Ry

     CASE: enthalpy_new < enthalpy_old

     new trust radius        =       0.0510474219 bohr
     new conv_thr            =       0.0000010000 Ry

     new unit-cell volume =  37039.70405 a.u.^3 (  5488.71779 Ang^3 )
     density =      0.28119 g/cm^3

CELL_PARAMETERS (alat= 33.68096681)
   0.998777950   0.000000000   0.000000000
  -0.499388975   0.864969111   0.000000000
   0.000000000   0.000000000   1.122132950

ATOMIC_POSITIONS (angstrom)
Al       2.168939442   1.317263046   0.000000000
Al      -2.233027259   6.424596983   0.000000000
Al       0.000032060   5.073893111   0.000000000
Al      -4.441727459  10.282738829   0.000000000
Al      -2.229978457   8.974505195   0.000000000
Al      -6.678545426  14.124586092   0.000000000
Al      -4.468793357  12.852297091   0.000000000
Al       4.455152776   2.575787131   0.000000000
Al       6.661926153   1.298267085   0.000000000
Al       2.233057563   6.424615157   0.000000000
Al       4.447272017   5.137045127   0.000000000
Al       0.000030889  10.284254416   0.000000000
Al       2.230074051   8.974523369   0.000000000
Al      -2.219545807  14.128620539   0.000000000
Al       0.000063534  12.847228486   0.000000000
Al       8.900750536   2.559572866   0.000000000
Al      11.139608734   1.298285259   0.000000000
Al       6.679230482   6.425735703   0.000000000
Al       8.900783181   5.135453942   0.000000000
Al       4.441789238  10.282775177   0.000000000
Al       6.672637368   8.994795916   0.000000000
Al       2.219639060  14.128638713   0.000000000
Al       4.468920426  12.852333438   0.000000000
Al      13.346348295   2.575823479   0.000000000
Al      15.632595446   1.317317568   0.000000000
Al      11.122302064   6.425753877   0.000000000
Al      13.354294344   5.137081475   0.000000000
Al       8.900782010  10.273569663   0.000000000
Al      11.128960468   8.994814089   0.000000000
Al       6.678638679  14.124640614   0.000000000
Al       8.900814655  12.850911843   0.000000000



     Writing output data file 1al_planar_2x2_vcr.save/
     NEW-OLD atomic charge density approx. for the potential

     negative rho (up, down):  1.379E-04 0.000E+00
     extrapolated charge   92.90411, renormalised to   93.00000

     total cpu time spent up to now is     1254.7 secs

     Self-consistent Calculation

     iteration #  1     ecut=    80.00 Ry     beta= 0.40
     Davidson diagonalization with overlap
     ethr =  1.00E-06,  avg # of iterations =  6.0

     negative rho (up, down):  1.386E-04 0.000E+00

     total cpu time spent up to now is     1296.1 secs

     total energy              =    -140.94274746 Ry
     Harris-Foulkes estimate   =    -141.41811752 Ry
     estimated scf accuracy    <       0.00036327 Ry

     iteration #  2     ecut=    80.00 Ry     beta= 0.40
     Davidson diagonalization with overlap
     ethr =  3.91E-07,  avg # of iterations =  6.0

     negative rho (up, down):  1.384E-04 0.000E+00

     total cpu time spent up to now is     1327.6 secs

     total energy              =    -140.94274791 Ry
     Harris-Foulkes estimate   =    -140.94322848 Ry
     estimated scf accuracy    <       0.00366368 Ry

     iteration #  3     ecut=    80.00 Ry     beta= 0.40
     Davidson diagonalization with overlap
     ethr =  3.91E-07,  avg # of iterations =  4.0

     negative rho (up, down):  1.383E-04 0.000E+00

     total cpu time spent up to now is     1349.7 secs

     total energy              =    -140.94296658 Ry
     Harris-Foulkes estimate   =    -140.94298905 Ry
     estimated scf accuracy    <       0.00010331 Ry

     iteration #  4     ecut=    80.00 Ry     beta= 0.40
     Davidson diagonalization with overlap
     ethr =  1.11E-07,  avg # of iterations =  2.0

     negative rho (up, down):  1.382E-04 0.000E+00

     total cpu time spent up to now is     1367.8 secs

     total energy              =    -140.94296372 Ry
     Harris-Foulkes estimate   =    -140.94297687 Ry
     estimated scf accuracy    <       0.00005674 Ry

     iteration #  5     ecut=    80.00 Ry     beta= 0.40
     Davidson diagonalization with overlap
     ethr =  6.10E-08,  avg # of iterations =  4.0

     negative rho (up, down):  1.380E-04 0.000E+00

     total cpu time spent up to now is     1387.9 secs

     total energy              =    -140.94295669 Ry
     Harris-Foulkes estimate   =    -140.94298583 Ry
     estimated scf accuracy    <       0.00019909 Ry

     iteration #  6     ecut=    80.00 Ry     beta= 0.40
     Davidson diagonalization with overlap
     ethr =  6.10E-08,  avg # of iterations =  4.0

     negative rho (up, down):  1.379E-04 0.000E+00

     total cpu time spent up to now is     1407.4 secs

     total energy              =    -140.94297123 Ry
     Harris-Foulkes estimate   =    -140.94297278 Ry
     estimated scf accuracy    <       0.00000949 Ry

     iteration #  7     ecut=    80.00 Ry     beta= 0.40
     Davidson diagonalization with overlap
     ethr =  1.02E-08,  avg # of iterations =  5.0

     negative rho (up, down):  1.378E-04 0.000E+00

     total cpu time spent up to now is     1429.1 secs

     total energy              =    -140.94297237 Ry
     Harris-Foulkes estimate   =    -140.94297322 Ry
     estimated scf accuracy    <       0.00000570 Ry

     iteration #  8     ecut=    80.00 Ry     beta= 0.40
     Davidson diagonalization with overlap
     ethr =  6.13E-09,  avg # of iterations =  3.0

     negative rho (up, down):  1.377E-04 0.000E+00

     total cpu time spent up to now is     1448.2 secs

     total energy              =    -140.94297272 Ry
     Harris-Foulkes estimate   =    -140.94297306 Ry
     estimated scf accuracy    <       0.00000239 Ry

     iteration #  9     ecut=    80.00 Ry     beta= 0.40
     Davidson diagonalization with overlap
     ethr =  2.56E-09,  avg # of iterations =  4.0

     negative rho (up, down):  1.377E-04 0.000E+00

     total cpu time spent up to now is     1467.5 secs

     End of self-consistent calculation

          k = 0.0000 0.0000 0.0000 (448403 PWs)   bands (ev):

    -9.9568  -9.4517  -9.4433  -9.4432  -9.4167  -9.4164  -9.1344  -8.4017
    -8.4014  -8.3982  -8.3677  -8.3676  -8.3133  -8.2355  -8.2352  -7.5795
    -6.9330  -6.9330  -6.8233  -6.4776  -6.4776  -6.4585  -6.3817  -6.3816
    -5.5051  -4.8243  -4.8179  -4.8178  -4.7377  -4.7375  -4.4685  -4.4616
    -4.4450  -4.4450  -4.1433  -4.1430  -3.9792  -3.4719  -3.4685  -3.4682
    -3.4550  -3.4547  -3.3878  -3.2897  -3.2647  -3.2643  -3.2157  -2.9600
    -2.9515  -2.9515  -2.9353  -2.5010  -2.5007  -2.4443  -2.4287  -2.4279

     the Fermi energy is    -3.0893 ev

!    total energy              =    -140.94297222 Ry
     Harris-Foulkes estimate   =    -140.94297299 Ry
     estimated scf accuracy    <       0.00000090 Ry

     The total energy is the sum of the following terms:

     one-electron contribution =    -502.78963024 Ry
     hartree contribution      =     260.13602133 Ry
     xc contribution           =     -61.32353846 Ry
     ewald contribution        =     163.11207861 Ry
     smearing contrib. (-TS)   =      -0.07790346 Ry

     convergence has been achieved in   9 iterations

     negative rho (up, down):  1.377E-04 0.000E+00

     Forces acting on atoms (cartesian axes, Ry/au):

     atom    1 type  1   force =    -0.01285236    0.00740106    0.00000000
     atom    2 type  1   force =     0.00395764   -0.00346460    0.00000000
     atom    3 type  1   force =     0.00000000   -0.01486214    0.00000000
     atom    4 type  1   force =     0.00181438    0.00105689    0.00000000
     atom    5 type  1   force =     0.00075193   -0.00051503    0.00000000
     atom    6 type  1   force =    -0.00103622    0.00517840    0.00000000
     atom    7 type  1   force =    -0.00008801    0.00090565    0.00000000
     atom    8 type  1   force =    -0.00499346   -0.00171224    0.00000000
     atom    9 type  1   force =    -0.00083770   -0.00039802    0.00000000
     atom   10 type  1   force =    -0.00395764   -0.00346460    0.00000000
     atom   11 type  1   force =     0.00070953    0.00041278    0.00000000
     atom   12 type  1   force =     0.00000000   -0.00122677    0.00000000
     atom   13 type  1   force =    -0.00075193   -0.00051503    0.00000000
     atom   14 type  1   force =    -0.00105870    0.00061447    0.00000000
     atom   15 type  1   force =    -0.00000000    0.00000156    0.00000000
     atom   16 type  1   force =     0.00000000   -0.00207875    0.00000000
     atom   17 type  1   force =     0.00083770   -0.00039802    0.00000000
     atom   18 type  1   force =    -0.00013906   -0.00008942    0.00000000
     atom   19 type  1   force =     0.00000000   -0.00191342    0.00000000
     atom   20 type  1   force =    -0.00181438    0.00105689    0.00000000
     atom   21 type  1   force =    -0.00165443    0.00096723    0.00000000
     atom   22 type  1   force =     0.00105870    0.00061447    0.00000000
     atom   23 type  1   force =     0.00008801    0.00090565    0.00000000
     atom   24 type  1   force =     0.00499346   -0.00171224    0.00000000
     atom   25 type  1   force =     0.01285236    0.00740106    0.00000000
     atom   26 type  1   force =     0.00013906   -0.00008942    0.00000000
     atom   27 type  1   force =    -0.00070953    0.00041278    0.00000000
     atom   28 type  1   force =    -0.00000000    0.00015819    0.00000000
     atom   29 type  1   force =     0.00165443    0.00096723    0.00000000
     atom   30 type  1   force =     0.00103622    0.00517840    0.00000000
     atom   31 type  1   force =     0.00000000   -0.00079302    0.00000000

     Total force =     0.029383     Total SCF correction =     0.000769


     Computing stress (Cartesian axis) and pressure


     negative rho (up, down):  1.377E-04 0.000E+00
          total   stress  (Ry/bohr**3)                   (kbar)     P=   -0.65
  -0.00000669  -0.00000000   0.00000000         -0.98     -0.00      0.00
  -0.00000000  -0.00000669   0.00000000         -0.00     -0.98      0.00
   0.00000000   0.00000000   0.00000003          0.00      0.00      0.00


     number of scf cycles    =   5
     number of bfgs steps    =   4

     enthalpy old            =    -140.9403562587 Ry
     enthalpy new            =    -140.9429722154 Ry

     CASE: enthalpy_new < enthalpy_old

     new trust radius        =       0.0765316337 bohr
     new conv_thr            =       0.0000010000 Ry

     new unit-cell volume =  36982.02557 a.u.^3 (  5480.17072 Ang^3 )
     density =      0.28163 g/cm^3

CELL_PARAMETERS (alat= 33.68096681)
   0.997999440  -0.000000000   0.000000000
  -0.498999720   0.864295862   0.000000000
   0.000000000   0.000000000   1.122132950

ATOMIC_POSITIONS (angstrom)
Al       2.132223680   1.336479341   0.000000000
Al      -2.233327576   6.418405010   0.000000000
Al       0.000032035   5.029476567   0.000000000
Al      -4.432979237  10.277794204   0.000000000
Al      -2.230358942   8.957816464   0.000000000
Al      -6.675382208  14.112411011   0.000000000
Al      -4.474783434  12.845323660   0.000000000
Al       4.451650245   2.576142440   0.000000000
Al       6.649373188   1.303971362   0.000000000
Al       2.233357856   6.418423169   0.000000000
Al       4.442538418   5.132295116   0.000000000
Al       0.000030865  10.278964393   0.000000000
Al       2.230454462   8.957834624   0.000000000
Al      -2.215471122  14.116222958   0.000000000
Al       0.000063485  12.837239683   0.000000000
Al       8.893812735   2.551496955   0.000000000
Al      11.138286071   1.303989522   0.000000000
Al       6.675827340   6.421768959   0.000000000
Al       8.893845355   5.128762972   0.000000000
Al       4.433040968  10.277830524   0.000000000
Al       6.665117729   8.989143827   0.000000000
Al       2.215564302  14.116241118   0.000000000
Al       4.474910403  12.845359980   0.000000000
Al      13.335975225   2.576178759   0.000000000
Al      15.655435580   1.336533820   0.000000000
Al      11.111829580   6.421787119   0.000000000
Al      13.345152291   5.132331435   0.000000000
Al       8.893844185  10.263475880   0.000000000
Al      11.122604430   8.989161986   0.000000000
Al       6.675475389  14.112465490   0.000000000
Al       8.893876805  12.842403208   0.000000000



     Writing output data file 1al_planar_2x2_vcr.save/
     NEW-OLD atomic charge density approx. for the potential

     negative rho (up, down):  1.377E-04 0.000E+00
     extrapolated charge   92.85507, renormalised to   93.00000

     total cpu time spent up to now is     1546.6 secs

     Self-consistent Calculation

     iteration #  1     ecut=    80.00 Ry     beta= 0.40
     Davidson diagonalization with overlap
     ethr =  1.00E-06,  avg # of iterations =  8.0

     negative rho (up, down):  1.387E-04 0.000E+00

     total cpu time spent up to now is     1584.6 secs

     total energy              =    -140.94623443 Ry
     Harris-Foulkes estimate   =    -141.66547979 Ry
     estimated scf accuracy    <       0.00073436 Ry

     iteration #  2     ecut=    80.00 Ry     beta= 0.40
     Davidson diagonalization with overlap
     c_bands:  1 eigenvalues not converged
     ethr =  7.90E-07,  avg # of iterations = 20.0

     negative rho (up, down):  1.386E-04 0.000E+00

     total cpu time spent up to now is     1616.7 secs

     total energy              =    -140.94621482 Ry
     Harris-Foulkes estimate   =    -140.94711484 Ry
     estimated scf accuracy    <       0.00658472 Ry

     iteration #  3     ecut=    80.00 Ry     beta= 0.40
     Davidson diagonalization with overlap
     ethr =  7.90E-07,  avg # of iterations =  6.0

     negative rho (up, down):  1.382E-04 0.000E+00

     total cpu time spent up to now is     1639.7 secs

     total energy              =    -140.94661350 Ry
     Harris-Foulkes estimate   =    -140.94668137 Ry
     estimated scf accuracy    <       0.00031136 Ry

     iteration #  4     ecut=    80.00 Ry     beta= 0.40
     Davidson diagonalization with overlap
     ethr =  3.35E-07,  avg # of iterations =  2.0

     negative rho (up, down):  1.379E-04 0.000E+00

     total cpu time spent up to now is     1657.9 secs

     total energy              =    -140.94661666 Ry
     Harris-Foulkes estimate   =    -140.94664954 Ry
     estimated scf accuracy    <       0.00016701 Ry

     iteration #  5     ecut=    80.00 Ry     beta= 0.40
     Davidson diagonalization with overlap
     ethr =  1.80E-07,  avg # of iterations =  2.0

     negative rho (up, down):  1.375E-04 0.000E+00

     total cpu time spent up to now is     1676.1 secs

     total energy              =    -140.94661137 Ry
     Harris-Foulkes estimate   =    -140.94665642 Ry
     estimated scf accuracy    <       0.00027151 Ry

     iteration #  6     ecut=    80.00 Ry     beta= 0.40
     Davidson diagonalization with overlap
     ethr =  1.80E-07,  avg # of iterations =  1.0

     negative rho (up, down):  1.372E-04 0.000E+00

     total cpu time spent up to now is     1693.7 secs

     total energy              =    -140.94663156 Ry
     Harris-Foulkes estimate   =    -140.94663621 Ry
     estimated scf accuracy    <       0.00002509 Ry

     iteration #  7     ecut=    80.00 Ry     beta= 0.40
     Davidson diagonalization with overlap
     ethr =  2.70E-08,  avg # of iterations = 13.0

     negative rho (up, down):  1.372E-04 0.000E+00

     total cpu time spent up to now is     1717.7 secs

     total energy              =    -140.94657488 Ry
     Harris-Foulkes estimate   =    -140.94657818 Ry
     estimated scf accuracy    <       0.00004021 Ry

     iteration #  8     ecut=    80.00 Ry     beta= 0.40
     Davidson diagonalization with overlap
     ethr =  2.70E-08,  avg # of iterations =  1.0

     negative rho (up, down):  1.372E-04 0.000E+00

     total cpu time spent up to now is     1735.4 secs

     total energy              =    -140.94657585 Ry
     Harris-Foulkes estimate   =    -140.94657540 Ry
     estimated scf accuracy    <       0.00002207 Ry

     iteration #  9     ecut=    80.00 Ry     beta= 0.40
     Davidson diagonalization with overlap
     ethr =  2.37E-08,  avg # of iterations =  1.0

     negative rho (up, down):  1.372E-04 0.000E+00

     total cpu time spent up to now is     1753.2 secs

     total energy              =    -140.94657255 Ry
     Harris-Foulkes estimate   =    -140.94657582 Ry
     estimated scf accuracy    <       0.00002352 Ry

     iteration # 10     ecut=    80.00 Ry     beta= 0.40
     Davidson diagonalization with overlap
     ethr =  2.37E-08,  avg # of iterations =  1.0

     negative rho (up, down):  1.373E-04 0.000E+00

     total cpu time spent up to now is     1771.0 secs

     total energy              =    -140.94657137 Ry
     Harris-Foulkes estimate   =    -140.94657326 Ry
     estimated scf accuracy    <       0.00000976 Ry

     iteration # 11     ecut=    80.00 Ry     beta= 0.40
     Davidson diagonalization with overlap
     ethr =  1.05E-08,  avg # of iterations =  4.0

     negative rho (up, down):  1.373E-04 0.000E+00

     total cpu time spent up to now is     1791.3 secs

     total energy              =    -140.94657178 Ry
     Harris-Foulkes estimate   =    -140.94657233 Ry
     estimated scf accuracy    <       0.00000371 Ry

     iteration # 12     ecut=    80.00 Ry     beta= 0.40
     Davidson diagonalization with overlap
     ethr =  3.99E-09,  avg # of iterations =  4.0

     negative rho (up, down):  1.373E-04 0.000E+00

     total cpu time spent up to now is     1810.8 secs

     total energy              =    -140.94657179 Ry
     Harris-Foulkes estimate   =    -140.94657199 Ry
     estimated scf accuracy    <       0.00000101 Ry

     iteration # 13     ecut=    80.00 Ry     beta= 0.40
     Davidson diagonalization with overlap
     ethr =  1.08E-09,  avg # of iterations =  5.0

     negative rho (up, down):  1.373E-04 0.000E+00

     total cpu time spent up to now is     1833.0 secs

     total energy              =    -140.94657161 Ry
     Harris-Foulkes estimate   =    -140.94657178 Ry
     estimated scf accuracy    <       0.00000132 Ry

     iteration # 14     ecut=    80.00 Ry     beta= 0.40
     Davidson diagonalization with overlap
     ethr =  1.08E-09,  avg # of iterations =  4.0

     negative rho (up, down):  1.373E-04 0.000E+00

     total cpu time spent up to now is     1853.3 secs

     total energy              =    -140.94657072 Ry
     Harris-Foulkes estimate   =    -140.94657089 Ry
     estimated scf accuracy    <       0.00000126 Ry

     iteration # 15     ecut=    80.00 Ry     beta= 0.40
     Davidson diagonalization with overlap
     ethr =  1.08E-09,  avg # of iterations =  1.0

     negative rho (up, down):  1.373E-04 0.000E+00

     total cpu time spent up to now is     1870.8 secs

     End of self-consistent calculation

          k = 0.0000 0.0000 0.0000 (448403 PWs)   bands (ev):

    -9.9602  -9.4535  -9.4514  -9.4512  -9.4120  -9.4118  -9.1303  -8.4073
    -8.4035  -8.4033  -8.3586  -8.3585  -8.3193  -8.2197  -8.2196  -7.5777
    -6.9344  -6.9344  -6.8264  -6.4775  -6.4774  -6.4451  -6.3857  -6.3856
    -5.5297  -4.8191  -4.8062  -4.8061  -4.7363  -4.7362  -4.4638  -4.4575
    -4.4472  -4.4471  -4.1565  -4.1562  -3.9807  -3.4726  -3.4724  -3.4719
    -3.4509  -3.4507  -3.3782  -3.3410  -3.2602  -3.2598  -3.2133  -2.9664
    -2.9430  -2.9429  -2.9172  -2.4917  -2.4914  -2.4507  -2.4413  -2.4409

     the Fermi energy is    -3.0891 ev

!    total energy              =    -140.94657029 Ry
     Harris-Foulkes estimate   =    -140.94657053 Ry
     estimated scf accuracy    <       0.00000032 Ry

     The total energy is the sum of the following terms:

     one-electron contribution =    -503.27293614 Ry
     hartree contribution      =     260.37098183 Ry
     xc contribution           =     -61.31664222 Ry
     ewald contribution        =     163.34839712 Ry
     smearing contrib. (-TS)   =      -0.07637087 Ry

     convergence has been achieved in  15 iterations

     negative rho (up, down):  1.373E-04 0.000E+00

     Forces acting on atoms (cartesian axes, Ry/au):

     atom    1 type  1   force =    -0.01295468    0.00747042    0.00000000
     atom    2 type  1   force =     0.00776177   -0.00570991    0.00000000
     atom    3 type  1   force =    -0.00000000   -0.01496872    0.00000000
     atom    4 type  1   force =     0.00218614    0.00125665    0.00000000
     atom    5 type  1   force =     0.00165362    0.00179525    0.00000000
     atom    6 type  1   force =    -0.00107919    0.00959459    0.00000000
     atom    7 type  1   force =     0.00238451    0.00053245    0.00000000
     atom    8 type  1   force =    -0.00884904   -0.00386770    0.00000000
     atom    9 type  1   force =     0.00075035   -0.00233814    0.00000000
     atom   10 type  1   force =    -0.00776177   -0.00570991    0.00000000
     atom   11 type  1   force =     0.00183172    0.00106192    0.00000000
     atom   12 type  1   force =    -0.00000000   -0.00263491    0.00000000
     atom   13 type  1   force =    -0.00165362    0.00179525    0.00000000
     atom   14 type  1   force =    -0.00225649    0.00131570    0.00000000
     atom   15 type  1   force =     0.00000000    0.00002466    0.00000000
     atom   16 type  1   force =    -0.00000000   -0.00249589    0.00000000
     atom   17 type  1   force =    -0.00075035   -0.00233814    0.00000000
     atom   18 type  1   force =    -0.00070116   -0.00037915    0.00000000
     atom   19 type  1   force =    -0.00000000   -0.00207582    0.00000000
     atom   20 type  1   force =    -0.00218614    0.00125665    0.00000000
     atom   21 type  1   force =    -0.00177220    0.00099550    0.00000000
     atom   22 type  1   force =     0.00225649    0.00131570    0.00000000
     atom   23 type  1   force =    -0.00238451    0.00053245    0.00000000
     atom   24 type  1   force =     0.00884904   -0.00386770    0.00000000
     atom   25 type  1   force =     0.01295468    0.00747042    0.00000000
     atom   26 type  1   force =     0.00070116   -0.00037915    0.00000000
     atom   27 type  1   force =    -0.00183172    0.00106192    0.00000000
     atom   28 type  1   force =     0.00000000    0.00080959    0.00000000
     atom   29 type  1   force =     0.00177220    0.00099550    0.00000000
     atom   30 type  1   force =     0.00107919    0.00959459    0.00000000
     atom   31 type  1   force =    -0.00000000   -0.00211409    0.00000000

     Total force =     0.036515     Total SCF correction =     0.000444


     Computing stress (Cartesian axis) and pressure


     negative rho (up, down):  1.373E-04 0.000E+00
          total   stress  (Ry/bohr**3)                   (kbar)     P=   -0.70
  -0.00000718  -0.00000000   0.00000000         -1.06     -0.00      0.00
  -0.00000000  -0.00000718   0.00000000         -0.00     -1.06      0.00
  -0.00000000  -0.00000000  -0.00000000         -0.00     -0.00     -0.00


     number of scf cycles    =   6
     number of bfgs steps    =   5

     enthalpy old            =    -140.9429722154 Ry
     enthalpy new            =    -140.9465702875 Ry

     CASE: enthalpy_new < enthalpy_old

     new trust radius        =       0.1147080978 bohr
     new conv_thr            =       0.0000010000 Ry

     new unit-cell volume =  36895.10794 a.u.^3 (  5467.29085 Ang^3 )
     density =      0.28229 g/cm^3

CELL_PARAMETERS (alat= 33.68096681)
   0.996825222  -0.000000000   0.000000000
  -0.498412611   0.863280247   0.000000000
   0.000000000   0.000000000   1.122132950

ATOMIC_POSITIONS (angstrom)
Al       2.077231271   1.365253795   0.000000000
Al      -2.232367763   6.408320824   0.000000000
Al       0.000031997   4.962936959   0.000000000
Al      -4.419582256  10.270440030   0.000000000
Al      -2.230673439   8.933565687   0.000000000
Al      -6.670545738  14.095634850   0.000000000
Al      -4.482872460  12.834569579   0.000000000
Al       4.445012021   2.575841218   0.000000000
Al       6.631136767   1.311889743   0.000000000
Al       2.232398008   6.408338963   0.000000000
Al       4.435872639   5.125400701   0.000000000
Al       0.000030829  10.270547770   0.000000000
Al       2.230768846   8.933583826   0.000000000
Al      -2.209689975  14.097734235   0.000000000
Al       0.000063410  12.822186779   0.000000000
Al       8.883348526   2.539087516   0.000000000
Al      11.135594033   1.311907881   0.000000000
Al       6.670490087   6.415690951   0.000000000
Al       8.883381107   5.118811617   0.000000000
Al       4.419643914  10.270476307   0.000000000
Al       6.653915373   8.980509194   0.000000000
Al       2.209783045  14.097752373   0.000000000
Al       4.482999280  12.834605855   0.000000000
Al      13.321685031   2.575877494   0.000000000
Al      15.689499529   1.365308210   0.000000000
Al      11.096238378   6.415709089   0.000000000
Al      13.330889575   5.125436978   0.000000000
Al       8.883379939  10.248486330   0.000000000
Al      11.112878254   8.980527332   0.000000000
Al       6.670638808  14.095689265   0.000000000
Al       8.883412520  12.828999691   0.000000000



     Writing output data file 1al_planar_2x2_vcr.save/
     NEW-OLD atomic charge density approx. for the potential

     negative rho (up, down):  1.374E-04 0.000E+00
     extrapolated charge   92.78109, renormalised to   93.00000

     total cpu time spent up to now is     1950.2 secs

     Self-consistent Calculation

     iteration #  1     ecut=    80.00 Ry     beta= 0.40
     Davidson diagonalization with overlap
     ethr =  1.00E-06,  avg # of iterations =  9.0

     negative rho (up, down):  1.390E-04 0.000E+00

     total cpu time spent up to now is     1990.6 secs

     total energy              =    -140.95071451 Ry
     Harris-Foulkes estimate   =    -142.03915909 Ry
     estimated scf accuracy    <       0.00181726 Ry

     iteration #  2     ecut=    80.00 Ry     beta= 0.40
     Davidson diagonalization with overlap
     ethr =  1.95E-06,  avg # of iterations =  6.0

     negative rho (up, down):  1.386E-04 0.000E+00

     total cpu time spent up to now is     2019.6 secs

     total energy              =    -140.95069317 Ry
     Harris-Foulkes estimate   =    -140.95345420 Ry
     estimated scf accuracy    <       0.02067948 Ry

     iteration #  3     ecut=    80.00 Ry     beta= 0.40
     Davidson diagonalization with overlap
     ethr =  1.95E-06,  avg # of iterations =  4.0

     negative rho (up, down):  1.382E-04 0.000E+00

     total cpu time spent up to now is     2043.0 secs

     total energy              =    -140.95190960 Ry
     Harris-Foulkes estimate   =    -140.95204322 Ry
     estimated scf accuracy    <       0.00059324 Ry

     iteration #  4     ecut=    80.00 Ry     beta= 0.40
     Davidson diagonalization with overlap
     ethr =  6.38E-07,  avg # of iterations =  2.0

     negative rho (up, down):  1.378E-04 0.000E+00

     total cpu time spent up to now is     2060.8 secs

     total energy              =    -140.95191339 Ry
     Harris-Foulkes estimate   =    -140.95197292 Ry
     estimated scf accuracy    <       0.00033257 Ry

     iteration #  5     ecut=    80.00 Ry     beta= 0.40
     Davidson diagonalization with overlap
     ethr =  3.58E-07,  avg # of iterations =  3.0

     negative rho (up, down):  1.374E-04 0.000E+00

     total cpu time spent up to now is     2078.8 secs

     total energy              =    -140.95188762 Ry
     Harris-Foulkes estimate   =    -140.95198135 Ry
     estimated scf accuracy    <       0.00054237 Ry

     iteration #  6     ecut=    80.00 Ry     beta= 0.40
     Davidson diagonalization with overlap
     ethr =  3.58E-07,  avg # of iterations =  1.0

     negative rho (up, down):  1.369E-04 0.000E+00

     total cpu time spent up to now is     2096.7 secs

     total energy              =    -140.95192950 Ry
     Harris-Foulkes estimate   =    -140.95194544 Ry
     estimated scf accuracy    <       0.00008659 Ry

     iteration #  7     ecut=    80.00 Ry     beta= 0.40
     Davidson diagonalization with overlap
     ethr =  9.31E-08,  avg # of iterations =  5.0

     negative rho (up, down):  1.369E-04 0.000E+00

     total cpu time spent up to now is     2118.2 secs

     total energy              =    -140.95193979 Ry
     Harris-Foulkes estimate   =    -140.95194830 Ry
     estimated scf accuracy    <       0.00006124 Ry

     iteration #  8     ecut=    80.00 Ry     beta= 0.40
     Davidson diagonalization with overlap
     ethr =  6.59E-08,  avg # of iterations =  1.0

     negative rho (up, down):  1.368E-04 0.000E+00

     total cpu time spent up to now is     2136.2 secs

     total energy              =    -140.95194331 Ry
     Harris-Foulkes estimate   =    -140.95194486 Ry
     estimated scf accuracy    <       0.00000825 Ry

     iteration #  9     ecut=    80.00 Ry     beta= 0.40
     Davidson diagonalization with overlap
     ethr =  8.87E-09,  avg # of iterations =  5.0

     negative rho (up, down):  1.368E-04 0.000E+00

     total cpu time spent up to now is     2158.9 secs

     total energy              =    -140.95194363 Ry
     Harris-Foulkes estimate   =    -140.95194474 Ry
     estimated scf accuracy    <       0.00000478 Ry

     iteration # 10     ecut=    80.00 Ry     beta= 0.40
     Davidson diagonalization with overlap
     ethr =  5.14E-09,  avg # of iterations =  3.0

     negative rho (up, down):  1.367E-04 0.000E+00

     total cpu time spent up to now is     2179.4 secs

     total energy              =    -140.95194369 Ry
     Harris-Foulkes estimate   =    -140.95194436 Ry
     estimated scf accuracy    <       0.00000481 Ry

     iteration # 11     ecut=    80.00 Ry     beta= 0.40
     Davidson diagonalization with overlap
     ethr =  5.14E-09,  avg # of iterations =  1.0

     negative rho (up, down):  1.367E-04 0.000E+00

     total cpu time spent up to now is     2197.2 secs

     total energy              =    -140.95194361 Ry
     Harris-Foulkes estimate   =    -140.95194406 Ry
     estimated scf accuracy    <       0.00000158 Ry

     iteration # 12     ecut=    80.00 Ry     beta= 0.40
     Davidson diagonalization with overlap
     ethr =  1.70E-09,  avg # of iterations =  5.0

     negative rho (up, down):  1.367E-04 0.000E+00

     total cpu time spent up to now is     2218.4 secs

     End of self-consistent calculation

          k = 0.0000 0.0000 0.0000 (448403 PWs)   bands (ev):

    -9.9647  -9.4615  -9.4615  -9.4564  -9.4055  -9.4052  -9.1259  -8.4193
    -8.4030  -8.4028  -8.3514  -8.3514  -8.3264  -8.1935  -8.1934  -7.5796
    -6.9367  -6.9365  -6.8295  -6.4761  -6.4761  -6.4254  -6.3901  -6.3899
    -5.5680  -4.8088  -4.7917  -4.7915  -4.7300  -4.7299  -4.4568  -4.4513
    -4.4490  -4.4489  -4.1763  -4.1760  -3.9824  -3.4777  -3.4776  -3.4719
    -3.4441  -3.4439  -3.4231  -3.3637  -3.2520  -3.2517  -3.2121  -2.9755
    -2.9303  -2.9301  -2.8859  -2.4775  -2.4772  -2.4582  -2.4389  -2.4386

     the Fermi energy is    -3.0875 ev

!    total energy              =    -140.95194316 Ry
     Harris-Foulkes estimate   =    -140.95194390 Ry
     estimated scf accuracy    <       0.00000088 Ry

     The total energy is the sum of the following terms:

     one-electron contribution =    -504.03315624 Ry
     hartree contribution      =     260.74476643 Ry
     xc contribution           =     -61.30918701 Ry
     ewald contribution        =     163.71809675 Ry
     smearing contrib. (-TS)   =      -0.07246309 Ry

     convergence has been achieved in  12 iterations

     negative rho (up, down):  1.367E-04 0.000E+00

     Forces acting on atoms (cartesian axes, Ry/au):

     atom    1 type  1   force =    -0.01338528    0.00770811    0.00000000
     atom    2 type  1   force =     0.01241720   -0.00907100    0.00000000
     atom    3 type  1   force =    -0.00000000   -0.01545775    0.00000000
     atom    4 type  1   force =     0.00194188    0.00113718    0.00000000
     atom    5 type  1   force =     0.00309237    0.00490837    0.00000000
     atom    6 type  1   force =    -0.00165670    0.01531040    0.00000000
     atom    7 type  1   force =     0.00580509    0.00020585    0.00000000
     atom    8 type  1   force =    -0.01406885   -0.00622692    0.00000000
     atom    9 type  1   force =     0.00271232   -0.00515932    0.00000000
     atom   10 type  1   force =    -0.01241720   -0.00907100    0.00000000
     atom   11 type  1   force =     0.00276710    0.00160044    0.00000000
     atom   12 type  1   force =    -0.00000000   -0.00481174    0.00000000
     atom   13 type  1   force =    -0.00309237    0.00490837    0.00000000
     atom   14 type  1   force =    -0.00419232    0.00244757    0.00000000
     atom   15 type  1   force =    -0.00000000   -0.00001513    0.00000000
     atom   16 type  1   force =    -0.00000000   -0.00225505    0.00000000
     atom   17 type  1   force =    -0.00271232   -0.00515932    0.00000000
[...]
Al       2.452842265   9.690676315   0.000000000
Al       4.778555890   8.388936578   0.000000000
Al       2.565016617  12.429896473   0.000000000
Al       4.858737560  11.002201952   0.000000000
Al      11.624932030   1.418861979   0.000000000
Al      13.970861111   2.519258849   0.000000000
Al       8.952858532   6.249944660   0.000000000
Al      10.179032247   3.919199272   0.000000000
Al       7.597992157   8.484013879   0.000000000
Al      10.417457291   8.388952304   0.000000000
Al       6.252434748  13.223628408   0.000000000
Al       7.598020024  11.021641844   0.000000000
End final coordinates



     Writing output data file 1al_planar_2x2_vcr.save/

     A final scf calculation at the relaxed structure.
     The G-vectors are recalculated for the final unit cell
     Results may differ from those at the preceding step.
 
     Parallelization info
     --------------------
     sticks:   dense  smooth     PW     G-vecs:    dense   smooth      PW
     Min        2304    2304    576               330602   330602   41308
     Max        2306    2306    577               330603   330603   41311
     Sum       18439   18439   4615              2644821  2644821  330477
 


     bravais-lattice index     =            4
     lattice parameter (alat)  =      33.6810  a.u.
     unit-cell volume          =   27360.1571 (a.u.)^3
     number of atoms/cell      =           31
     number of atomic types    =            1
     number of electrons       =        93.00
     number of Kohn-Sham states=           56
     kinetic-energy cutoff     =      80.0000  Ry
     charge density cutoff     =     320.0000  Ry
     convergence threshold     =      1.0E-08
     mixing beta               =       0.4000
     number of iterations used =            8  plain     mixing
     Exchange-correlation      = PBE ( 1  4  3  4 0 0)

     celldm(1)=  33.680967  celldm(2)=   0.000000  celldm(3)=   1.122133
     celldm(4)=   0.000000  celldm(5)=   0.000000  celldm(6)=   0.000000

     crystal axes: (cart. coord. in units of alat)
               a(1) = (   0.852589   0.000000   0.000000 )  
               a(2) = (  -0.426294   0.748481   0.000000 )  
               a(3) = (   0.000000   0.000000   1.122133 )  

     reciprocal axes: (cart. coord. in units 2 pi/alat)
               b(1) = (  1.172898  0.668019  0.000000 )  
               b(2) = ( -0.000000  1.336039  0.000000 )  
               b(3) = (  0.000000  0.000000  0.891160 )  


     PseudoPot. # 1 for Al read from file:
     ./Al.upf
     MD5 check sum: 4974d48a734c9d7d1eb6780a1419d19d
     Pseudo is Norm-conserving + core correction, Zval =  3.0
     Generated using ONCVPSP code by D. R. Hamann
     Using radial grid of 1876 points,  6 beta functions with: 
                l(1) =   0
                l(2) =   0
                l(3) =   1
                l(4) =   1
                l(5) =   2
                l(6) =   2

     atomic species   valence    mass     pseudopotential
        Al             3.00    29.98200     Al( 1.00)

      4 Sym. Ops. (no inversion) found ( 2 have fractional translation)



   Cartesian axes

     site n.     atom                  positions (alat units)
         1           Al  tau(   1) = (   0.0687362   0.1413445   0.0000000  )
         2           Al  tau(   2) = (  -0.1470702   0.2570874   0.0000000  )
         3           Al  tau(   3) = (   0.0000015   0.2944246   0.0000000  )
         4           Al  tau(   4) = (  -0.1376178   0.5437096   0.0000000  )
         5           Al  tau(   5) = (  -0.1373820   0.3972084   0.0000000  )
         6           Al  tau(   6) = (  -0.3507987   0.7419308   0.0000000  )
         7           Al  tau(   7) = (  -0.2726014   0.6172949   0.0000000  )
         8           Al  tau(   8) = (   0.2003568   0.0796058   0.0000000  )
         9           Al  tau(   9) = (   0.3464753   0.0935279   0.0000000  )
        10           Al  tau(  10) = (   0.1470716   0.2570883   0.0000000  )
        11           Al  tau(  11) = (   0.2814845   0.2198914   0.0000000  )
        12           Al  tau(  12) = (   0.0000015   0.4482292   0.0000000  )
        13           Al  tau(  13) = (   0.1373866   0.3972093   0.0000000  )
        14           Al  tau(  14) = (  -0.1439100   0.6973989   0.0000000  )
        15           Al  tau(  15) = (   0.0000030   0.5920926   0.0000000  )
        16           Al  tau(  16) = (   0.4262964  -0.0201832   0.0000000  )
        17           Al  tau(  17) = (   0.5061190   0.0935288   0.0000000  )
        18           Al  tau(  18) = (   0.3502794   0.3506626   0.0000000  )
        19           Al  tau(  19) = (   0.4262979   0.2214419   0.0000000  )
        20           Al  tau(  20) = (   0.1376208   0.5437114   0.0000000  )
        21           Al  tau(  21) = (   0.2681088   0.4706751   0.0000000  )
        22           Al  tau(  22) = (   0.1439145   0.6973998   0.0000000  )
        23           Al  tau(  23) = (   0.2726075   0.6172967   0.0000000  )
        24           Al  tau(  24) = (   0.6522360   0.0796076   0.0000000  )
        25           Al  tau(  25) = (   0.7838582   0.1413472   0.0000000  )
        26           Al  tau(  26) = (   0.5023149   0.3506634   0.0000000  )
        27           Al  tau(  27) = (   0.5711114   0.2198931   0.0000000  )
        28           Al  tau(  28) = (   0.4262979   0.4760096   0.0000000  )
        29           Al  tau(  29) = (   0.5844886   0.4706760   0.0000000  )
        30           Al  tau(  30) = (   0.3508032   0.7419335   0.0000000  )
        31           Al  tau(  31) = (   0.4262994   0.6183874   0.0000000  )

     number of k points=     1  Methfessel-Paxton smearing, width (Ry)=  0.0500
                       cart. coord. in units 2pi/alat
        k(    1) = (   0.0000000   0.0000000   0.0000000), wk =   2.0000000

     Dense  grid:  2644821 G-vectors     FFT dimensions: ( 180, 180, 216)

     Estimated max dynamical RAM per process >     888.76 MB

     Estimated total dynamical RAM >       6.94 GB

     Initial potential from superposition of free atoms

     starting charge   92.92414, renormalised to   93.00000

     negative rho (up, down):  7.322E-05 0.000E+00
     Starting wfcs are  124 randomized atomic wfcs

     total cpu time spent up to now is    58400.4 secs

     Self-consistent Calculation

     iteration #  1     ecut=    80.00 Ry     beta= 0.40
     Davidson diagonalization with overlap
     c_bands:  1 eigenvalues not converged
     ethr =  1.00E-06,  avg # of iterations = 20.0

     negative rho (up, down):  2.112E-05 0.000E+00

     total cpu time spent up to now is    58455.7 secs

     total energy              =    -141.89443763 Ry
     Harris-Foulkes estimate   =    -142.27102299 Ry
     estimated scf accuracy    <       1.00690367 Ry

     iteration #  2     ecut=    80.00 Ry     beta= 0.40
     Davidson diagonalization with overlap
     ethr =  1.08E-03,  avg # of iterations =  3.0

     negative rho (up, down):  2.252E-05 0.000E+00

     total cpu time spent up to now is    58471.1 secs

     total energy              =    -141.83243739 Ry
     Harris-Foulkes estimate   =    -142.06337384 Ry
     estimated scf accuracy    <       0.61504324 Ry

     iteration #  3     ecut=    80.00 Ry     beta= 0.40
     Davidson diagonalization with overlap
     ethr =  6.61E-04,  avg # of iterations =  5.0

     negative rho (up, down):  2.692E-05 0.000E+00

     total cpu time spent up to now is    58489.9 secs

     total energy              =    -141.88103327 Ry
     Harris-Foulkes estimate   =    -142.06950415 Ry
     estimated scf accuracy    <       0.88605308 Ry

     iteration #  4     ecut=    80.00 Ry     beta= 0.40
     Davidson diagonalization with overlap
     ethr =  6.61E-04,  avg # of iterations =  4.0

     negative rho (up, down):  2.838E-05 0.000E+00

     total cpu time spent up to now is    58505.8 secs

     total energy              =    -141.96594020 Ry
     Harris-Foulkes estimate   =    -141.97309515 Ry
     estimated scf accuracy    <       0.02379021 Ry

     iteration #  5     ecut=    80.00 Ry     beta= 0.40
     Davidson diagonalization with overlap
     ethr =  2.56E-05,  avg # of iterations = 12.0

     negative rho (up, down):  2.931E-05 0.000E+00

     total cpu time spent up to now is    58529.3 secs

     total energy              =    -141.97138319 Ry
     Harris-Foulkes estimate   =    -141.97535609 Ry
     estimated scf accuracy    <       0.01634064 Ry

     iteration #  6     ecut=    80.00 Ry     beta= 0.40
     Davidson diagonalization with overlap
     ethr =  1.76E-05,  avg # of iterations =  4.0

     negative rho (up, down):  3.025E-05 0.000E+00

     total cpu time spent up to now is    58545.6 secs

     total energy              =    -141.97230530 Ry
     Harris-Foulkes estimate   =    -141.97456376 Ry
     estimated scf accuracy    <       0.01001741 Ry

     iteration #  7     ecut=    80.00 Ry     beta= 0.40
     Davidson diagonalization with overlap
     ethr =  1.08E-05,  avg # of iterations =  4.0

     negative rho (up, down):  3.062E-05 0.000E+00

     total cpu time spent up to now is    58561.5 secs

     total energy              =    -141.97333545 Ry
     Harris-Foulkes estimate   =    -141.97356298 Ry
     estimated scf accuracy    <       0.00082118 Ry

     iteration #  8     ecut=    80.00 Ry     beta= 0.40
     Davidson diagonalization with overlap
     ethr =  8.83E-07,  avg # of iterations = 11.0

     negative rho (up, down):  3.072E-05 0.000E+00

     total cpu time spent up to now is    58584.6 secs

     total energy              =    -141.97336271 Ry
     Harris-Foulkes estimate   =    -141.97347032 Ry
     estimated scf accuracy    <       0.00059372 Ry

     iteration #  9     ecut=    80.00 Ry     beta= 0.40
     Davidson diagonalization with overlap
     ethr =  6.38E-07,  avg # of iterations =  3.0

     negative rho (up, down):  3.076E-05 0.000E+00

     total cpu time spent up to now is    58600.1 secs

     total energy              =    -141.97337651 Ry
     Harris-Foulkes estimate   =    -141.97341758 Ry
     estimated scf accuracy    <       0.00018854 Ry

     iteration # 10     ecut=    80.00 Ry     beta= 0.40
     Davidson diagonalization with overlap
     ethr =  2.03E-07,  avg # of iterations =  4.0

     negative rho (up, down):  3.081E-05 0.000E+00

     total cpu time spent up to now is    58616.6 secs

     total energy              =    -141.97339870 Ry
     Harris-Foulkes estimate   =    -141.97340091 Ry
     estimated scf accuracy    <       0.00000923 Ry

     iteration # 11     ecut=    80.00 Ry     beta= 0.40
     Davidson diagonalization with overlap
     ethr =  9.93E-09,  avg # of iterations =  7.0

     negative rho (up, down):  3.082E-05 0.000E+00

     total cpu time spent up to now is    58639.5 secs

     total energy              =    -141.97340187 Ry
     Harris-Foulkes estimate   =    -141.97340394 Ry
     estimated scf accuracy    <       0.00001092 Ry

     iteration # 12     ecut=    80.00 Ry     beta= 0.40
     Davidson diagonalization with overlap
     ethr =  9.93E-09,  avg # of iterations =  5.0

     negative rho (up, down):  3.084E-05 0.000E+00

     total cpu time spent up to now is    58655.8 secs

     total energy              =    -141.97340191 Ry
     Harris-Foulkes estimate   =    -141.97340312 Ry
     estimated scf accuracy    <       0.00000511 Ry

     iteration # 13     ecut=    80.00 Ry     beta= 0.40
     Davidson diagonalization with overlap
     ethr =  5.49E-09,  avg # of iterations =  4.0

     negative rho (up, down):  3.085E-05 0.000E+00

     total cpu time spent up to now is    58672.6 secs

     total energy              =    -141.97340246 Ry
     Harris-Foulkes estimate   =    -141.97340267 Ry
     estimated scf accuracy    <       0.00000148 Ry

     iteration # 14     ecut=    80.00 Ry     beta= 0.40
     Davidson diagonalization with overlap
     ethr =  1.59E-09,  avg # of iterations =  3.0

     negative rho (up, down):  3.086E-05 0.000E+00

     total cpu time spent up to now is    58687.1 secs

     total energy              =    -141.97340236 Ry
     Harris-Foulkes estimate   =    -141.97340250 Ry
     estimated scf accuracy    <       0.00000051 Ry

     iteration # 15     ecut=    80.00 Ry     beta= 0.40
     Davidson diagonalization with overlap
     ethr =  5.54E-10,  avg # of iterations =  5.0

     negative rho (up, down):  3.086E-05 0.000E+00

     total cpu time spent up to now is    58705.0 secs

     total energy              =    -141.97340242 Ry
     Harris-Foulkes estimate   =    -141.97340245 Ry
     estimated scf accuracy    <       0.00000014 Ry

     iteration # 16     ecut=    80.00 Ry     beta= 0.40
     Davidson diagonalization with overlap
     ethr =  1.46E-10,  avg # of iterations =  4.0

     negative rho (up, down):  3.086E-05 0.000E+00

     total cpu time spent up to now is    58720.8 secs

     total energy              =    -141.97340241 Ry
     Harris-Foulkes estimate   =    -141.97340242 Ry
     estimated scf accuracy    <       0.00000002 Ry

     iteration # 17     ecut=    80.00 Ry     beta= 0.40
     Davidson diagonalization with overlap
     ethr =  2.46E-11,  avg # of iterations =  4.0

     negative rho (up, down):  3.086E-05 0.000E+00

     total cpu time spent up to now is    58738.5 secs

     End of self-consistent calculation

          k = 0.0000 0.0000 0.0000 (330477 PWs)   bands (ev):

   -11.4586 -10.8344 -10.6798 -10.5837 -10.5365 -10.4469 -10.3902  -9.1876
    -9.0475  -8.9940  -8.8825  -8.8725  -8.6676  -8.2541  -8.1418  -8.1407
    -8.1144  -7.9020  -7.6537  -6.0615  -6.0008  -5.9550  -5.9510  -5.9029
    -5.8267  -5.6763  -5.5429  -5.4644  -5.4248  -5.2846  -5.2167  -4.7784
    -4.4731  -4.3408  -4.1367  -4.1324  -4.0305  -3.9588  -3.9368  -3.8757
    -3.8235  -3.7909  -3.7411  -3.7335  -2.5375  -2.4429  -2.3973  -2.3463
    -2.2950  -2.1898  -2.1816  -2.0756  -1.9453  -1.7870  -1.7061  -1.6152

     the Fermi energy is    -2.4736 ev

!    total energy              =    -141.97340238 Ry
     Harris-Foulkes estimate   =    -141.97340239 Ry
     estimated scf accuracy    <          9.7E-09 Ry

     The total energy is the sum of the following terms:

     one-electron contribution =    -670.66278755 Ry
     hartree contribution      =     344.05887149 Ry
     xc contribution           =     -63.39912436 Ry
     ewald contribution        =     248.07937736 Ry
     smearing contrib. (-TS)   =      -0.04973932 Ry

     convergence has been achieved in  17 iterations

     negative rho (up, down):  3.086E-05 0.000E+00

     Forces acting on atoms (cartesian axes, Ry/au):

     atom    1 type  1   force =    -0.00001063   -0.00000114    0.00000000
     atom    2 type  1   force =     0.00000348   -0.00000191    0.00000000
     atom    3 type  1   force =     0.00000000   -0.00000138    0.00000000
     atom    4 type  1   force =    -0.00001066    0.00001587    0.00000000
     atom    5 type  1   force =    -0.00000131   -0.00000907    0.00000000
     atom    6 type  1   force =    -0.00000589    0.00000299    0.00000000
     atom    7 type  1   force =     0.00000835    0.00000367    0.00000000
     atom    8 type  1   force =     0.00000421   -0.00000345    0.00000000
     atom    9 type  1   force =     0.00000589   -0.00000405    0.00000000
     atom   10 type  1   force =    -0.00000348   -0.00000191    0.00000000
     atom   11 type  1   force =    -0.00000990   -0.00000014    0.00000000
     atom   12 type  1   force =    -0.00000000    0.00000350    0.00000000
     atom   13 type  1   force =     0.00000131   -0.00000907    0.00000000
     atom   14 type  1   force =    -0.00000098   -0.00000538    0.00000000
     atom   15 type  1   force =    -0.00000000    0.00000718    0.00000000
     atom   16 type  1   force =     0.00000000   -0.00000625    0.00000000
     atom   17 type  1   force =    -0.00000589   -0.00000405    0.00000000
     atom   18 type  1   force =     0.00000545   -0.00000505    0.00000000
     atom   19 type  1   force =    -0.00000000    0.00000159    0.00000000
     atom   20 type  1   force =     0.00001066    0.00001587    0.00000000
     atom   21 type  1   force =     0.00000604   -0.00000425    0.00000000
     atom   22 type  1   force =     0.00000098   -0.00000538    0.00000000
     atom   23 type  1   force =    -0.00000835    0.00000367    0.00000000
     atom   24 type  1   force =    -0.00000421   -0.00000345    0.00000000
     atom   25 type  1   force =     0.00001063   -0.00000114    0.00000000
     atom   26 type  1   force =    -0.00000545   -0.00000505    0.00000000
     atom   27 type  1   force =     0.00000990   -0.00000014    0.00000000
     atom   28 type  1   force =    -0.00000000    0.00001677    0.00000000
     atom   29 type  1   force =    -0.00000604   -0.00000425    0.00000000
     atom   30 type  1   force =     0.00000589    0.00000299    0.00000000
     atom   31 type  1   force =    -0.00000000    0.00000241    0.00000000

     Total force =     0.000049     Total SCF correction =     0.000099
     SCF correction compared to forces is large: reduce conv_thr to get better values


     Computing stress (Cartesian axis) and pressure


     negative rho (up, down):  3.086E-05 0.000E+00
          total   stress  (Ry/bohr**3)                   (kbar)     P=    0.00
   0.00000003  -0.00000000   0.00000000          0.00     -0.00      0.00
  -0.00000000   0.00000002   0.00000000         -0.00      0.00      0.00
  -0.00000000   0.00000000  -0.00000001         -0.00      0.00     -0.00


     Writing output data file 1al_planar_2x2_vcr.save/
 
     init_run     :     43.59s CPU     46.80s WALL (       2 calls)
     electrons    :  40308.98s CPU  44074.83s WALL (     185 calls)
     update_pot   :   3803.11s CPU   3834.17s WALL (     183 calls)
     forces       :   3066.89s CPU   3111.50s WALL (     185 calls)
     stress       :   7486.59s CPU   7596.73s WALL (     185 calls)

     Called by init_run:
     wfcinit      :     20.07s CPU     22.82s WALL (       2 calls)
     potinit      :      8.61s CPU      8.84s WALL (       2 calls)
     hinit0       :     12.49s CPU     12.62s WALL (       2 calls)

     Called by electrons:
     c_bands      :  34715.19s CPU  37706.94s WALL (    1760 calls)
     sum_band     :   3762.42s CPU   4264.66s WALL (    1760 calls)
     v_of_rho     :   1623.38s CPU   1785.43s WALL (    1881 calls)
     mix_rho      :    300.37s CPU    391.61s WALL (    1760 calls)

     Called by c_bands:
     init_us_2    :    417.89s CPU    420.71s WALL (    3522 calls)
     cegterg      :  30295.64s CPU  33272.87s WALL (    1760 calls)

     Called by sum_band:

     Called by *egterg:
     h_psi        :  26207.04s CPU  29119.32s WALL (   11675 calls)
     g_psi        :     80.52s CPU     81.66s WALL (    9913 calls)
     cdiaghg      :     96.50s CPU     97.50s WALL (   11426 calls)

     Called by h_psi:
     h_psi:pot    :  26158.79s CPU  29020.27s WALL (   11675 calls)
     h_psi:calbec :   4451.93s CPU   4467.21s WALL (   11675 calls)
     vloc_psi     :  16866.62s CPU  19699.44s WALL (   11675 calls)
     add_vuspsi   :   4840.09s CPU   4853.52s WALL (   11675 calls)

     General routines
     calbec       :   5164.48s CPU   5182.33s WALL (   12600 calls)
     fft          :   1339.39s CPU   1480.37s WALL (   23682 calls)
     ffts         :     98.54s CPU    108.06s WALL (    1760 calls)
     fftw         :  17574.24s CPU  20826.08s WALL (  686814 calls)
 
     Parallel routines
     fft_scatt_xy :   2896.01s CPU   3537.39s WALL (  712256 calls)
     fft_scatt_yz :   7275.53s CPU   8076.50s WALL (  712256 calls)
 
     PWSCF        :    15h12m CPU       12h16m WALL

      19h
 
   This run was terminated on:  10:29:59  26Nov2020            

=------------------------------------------------------------------------------=
   JOB DONE.
=------------------------------------------------------------------------------=
