
     Program PWSCF v.6.3MaX starts on 25Nov2020 at 11:14:55 

     This program is part of the open-source Quantum ESPRESSO suite
     for quantum simulation of materials; please cite
         "P. Giannozzi et al., J. Phys.:Condens. Matter 21 395502 (2009);
         "P. Giannozzi et al., J. Phys.:Condens. Matter 29 465901 (2017);
          URL http://www.quantum-espresso.org", 
     in publications or presentations arising from this work. More details at
     http://www.quantum-espresso.org/quote

     Parallel version (MPI), running on     8 processors

     MPI processes distributed on     1 nodes
     R & G space division:  proc/nbgrp/npool/nimage =       8
     Waiting for input...
     Reading input from standard input

     Current dimensions of program PWSCF are:
     Max number of different atomic species (ntypx) = 10
     Max number of k-points (npk) =  40000
     Max angular momentum in pseudopotentials (lmaxx) =  3

     Subspace diagonalization in iterative solution of the eigenvalue problem:
     a serial algorithm will be used

     Message from routine find_sym:
     Not a group! Trying with lower acceptance parameter...
     Message from routine find_sym:
     Symmetry operations form a group
 
     Parallelization info
     --------------------
     sticks:   dense  smooth     PW     G-vecs:    dense   smooth      PW
     Min         778     778    194               112122   112122   13992
     Max         779     779    195               112130   112130   14001
     Sum        6229    6229   1555               896999   896999  111965
 


     bravais-lattice index     =            4
     lattice parameter (alat)  =      16.8405  a.u.
     unit-cell volume          =    9282.5779 (a.u.)^3
     number of atoms/cell      =            7
     number of atomic types    =            1
     number of electrons       =        21.00
     number of Kohn-Sham states=           15
     kinetic-energy cutoff     =      80.0000  Ry
     charge density cutoff     =     320.0000  Ry
     convergence threshold     =      1.0E-06
     mixing beta               =       0.4000
     number of iterations used =            8  plain     mixing
     Exchange-correlation      = PBE ( 1  4  3  4 0 0)
     nstep                     =          300


     celldm(1)=  16.840483  celldm(2)=   0.000000  celldm(3)=   2.244266
     celldm(4)=   0.000000  celldm(5)=   0.000000  celldm(6)=   0.000000

     crystal axes: (cart. coord. in units of alat)
               a(1) = (   1.000000   0.000000   0.000000 )  
               a(2) = (  -0.500000   0.866025   0.000000 )  
               a(3) = (   0.000000   0.000000   2.244266 )  

     reciprocal axes: (cart. coord. in units 2 pi/alat)
               b(1) = (  1.000000  0.577350  0.000000 )  
               b(2) = (  0.000000  1.154701  0.000000 )  
               b(3) = (  0.000000  0.000000  0.445580 )  


     PseudoPot. # 1 for Al read from file:
     ./Al.upf
     MD5 check sum: 4974d48a734c9d7d1eb6780a1419d19d
     Pseudo is Norm-conserving + core correction, Zval =  3.0
     Generated using ONCVPSP code by D. R. Hamann
     Using radial grid of 1876 points,  6 beta functions with: 
                l(1) =   0
                l(2) =   0
                l(3) =   1
                l(4) =   1
                l(5) =   2
                l(6) =   2

     atomic species   valence    mass     pseudopotential
        Al             3.00    29.98200     Al( 1.00)

      2 Sym. Ops. (no inversion) found



   Cartesian axes

     site n.     atom                  positions (alat units)
         1           Al  tau(   1) = (   0.0000001   0.2886786   0.0000000  )
         2           Al  tau(   2) = (   0.2500030   0.1443392   0.0000000  )
         3           Al  tau(   3) = (   0.5000023   0.2886806   0.0000000  )
         4           Al  tau(   4) = (   0.7500053   0.1443413   0.0000000  )
         5           Al  tau(   5) = (  -0.2499995   0.7216943   0.0000000  )
         6           Al  tau(   6) = (   0.2500029   0.7216963   0.0000000  )
         7           Al  tau(   7) = (   0.5000059   0.5773570   0.0000000  )

     number of k points=     1  Methfessel-Paxton smearing, width (Ry)=  0.0500
                       cart. coord. in units 2pi/alat
        k(    1) = (   0.0000000   0.0000000   0.0000000), wk =   2.0000000

     Dense  grid:   896999 G-vectors     FFT dimensions: (  96,  96, 216)

     Estimated max dynamical RAM per process >     127.42 MB

     Estimated total dynamical RAM >    1019.39 MB

     Initial potential from superposition of free atoms

     starting charge   20.98287, renormalised to   21.00000

     negative rho (up, down):  2.280E-05 0.000E+00
     Starting wfcs are   28 randomized atomic wfcs

     total cpu time spent up to now is        4.2 secs

     Self-consistent Calculation

     iteration #  1     ecut=    80.00 Ry     beta= 0.40
     Davidson diagonalization with overlap
     ethr =  1.00E-02,  avg # of iterations =  2.0

     total cpu time spent up to now is        5.7 secs

     total energy              =     -31.66578159 Ry
     Harris-Foulkes estimate   =     -31.75219867 Ry
     estimated scf accuracy    <       0.28959027 Ry

     iteration #  2     ecut=    80.00 Ry     beta= 0.40
     Davidson diagonalization with overlap
     ethr =  1.38E-03,  avg # of iterations =  2.0

     total cpu time spent up to now is        6.8 secs

     total energy              =     -31.66520441 Ry
     Harris-Foulkes estimate   =     -31.68735642 Ry
     estimated scf accuracy    <       0.06453012 Ry

     iteration #  3     ecut=    80.00 Ry     beta= 0.40
     Davidson diagonalization with overlap
     ethr =  3.07E-04,  avg # of iterations =  2.0

     total cpu time spent up to now is        8.0 secs

     total energy              =     -31.67542716 Ry
     Harris-Foulkes estimate   =     -31.67778580 Ry
     estimated scf accuracy    <       0.00935628 Ry

     iteration #  4     ecut=    80.00 Ry     beta= 0.40
     Davidson diagonalization with overlap
     ethr =  4.46E-05,  avg # of iterations =  4.0

     total cpu time spent up to now is        9.2 secs

     total energy              =     -31.67554362 Ry
     Harris-Foulkes estimate   =     -31.67676832 Ry
     estimated scf accuracy    <       0.00266318 Ry

     iteration #  5     ecut=    80.00 Ry     beta= 0.40
     Davidson diagonalization with overlap
     ethr =  1.27E-05,  avg # of iterations =  9.0

     total cpu time spent up to now is       10.8 secs

     total energy              =     -31.67641645 Ry
     Harris-Foulkes estimate   =     -31.67831009 Ry
     estimated scf accuracy    <       0.00680102 Ry

     iteration #  6     ecut=    80.00 Ry     beta= 0.40
     Davidson diagonalization with overlap
     ethr =  1.27E-05,  avg # of iterations =  2.0

     total cpu time spent up to now is       11.9 secs

     total energy              =     -31.67636016 Ry
     Harris-Foulkes estimate   =     -31.67686766 Ry
     estimated scf accuracy    <       0.00111707 Ry

     iteration #  7     ecut=    80.00 Ry     beta= 0.40
     Davidson diagonalization with overlap
     ethr =  5.32E-06,  avg # of iterations =  3.0

     total cpu time spent up to now is       13.2 secs

     total energy              =     -31.67662844 Ry
     Harris-Foulkes estimate   =     -31.67665828 Ry
     estimated scf accuracy    <       0.00011904 Ry

     iteration #  8     ecut=    80.00 Ry     beta= 0.40
     Davidson diagonalization with overlap
     ethr =  5.67E-07,  avg # of iterations =  2.0

     total cpu time spent up to now is       14.3 secs

     total energy              =     -31.67664483 Ry
     Harris-Foulkes estimate   =     -31.67665469 Ry
     estimated scf accuracy    <       0.00003097 Ry

     iteration #  9     ecut=    80.00 Ry     beta= 0.40
     Davidson diagonalization with overlap
     ethr =  1.47E-07,  avg # of iterations =  4.0

     total cpu time spent up to now is       15.5 secs

     total energy              =     -31.67664751 Ry
     Harris-Foulkes estimate   =     -31.67664972 Ry
     estimated scf accuracy    <       0.00000521 Ry

     iteration # 10     ecut=    80.00 Ry     beta= 0.40
     Davidson diagonalization with overlap
     ethr =  2.48E-08,  avg # of iterations =  3.0

     total cpu time spent up to now is       16.8 secs

     total energy              =     -31.67664967 Ry
     Harris-Foulkes estimate   =     -31.67665023 Ry
     estimated scf accuracy    <       0.00000150 Ry

     iteration # 11     ecut=    80.00 Ry     beta= 0.40
     Davidson diagonalization with overlap
     ethr =  7.15E-09,  avg # of iterations =  2.0

     total cpu time spent up to now is       17.9 secs

     End of self-consistent calculation

          k = 0.0000 0.0000 0.0000 (111965 PWs)   bands (ev):

    -9.6452  -8.0765  -8.0764  -7.5204  -6.5557  -6.5555  -4.1828  -3.7989
    -3.2627  -2.8077  -2.8074  -2.2401  -2.2401  -1.7271  -0.8758

     the Fermi energy is    -2.6603 ev

!    total energy              =     -31.67664995 Ry
     Harris-Foulkes estimate   =     -31.67665001 Ry
     estimated scf accuracy    <       0.00000010 Ry

     The total energy is the sum of the following terms:

     one-electron contribution =    -103.79253188 Ry
     hartree contribution      =      53.98973416 Ry
     xc contribution           =     -13.76125040 Ry
     ewald contribution        =      31.90178579 Ry
     smearing contrib. (-TS)   =      -0.01438762 Ry

     convergence has been achieved in  11 iterations

     Forces acting on atoms (cartesian axes, Ry/au):

     atom    1 type  1   force =     0.00002426    0.01079420    0.00000000
     atom    2 type  1   force =     0.00238788    0.00139139    0.00000000
     atom    3 type  1   force =     0.00000081    0.00000925    0.00000000
     atom    4 type  1   force =    -0.00240875    0.00138936    0.00000000
     atom    5 type  1   force =     0.00933063   -0.00540234    0.00000000
     atom    6 type  1   force =    -0.00931658   -0.00542696    0.00000000
     atom    7 type  1   force =    -0.00001825   -0.00275489    0.00000000

     Total force =     0.019287     Total SCF correction =     0.000224


     Computing stress (Cartesian axis) and pressure

          total   stress  (Ry/bohr**3)                   (kbar)     P=   -1.45
  -0.00001476   0.00000001   0.00000000         -2.17      0.00      0.00
   0.00000001  -0.00001476   0.00000000          0.00     -2.17      0.00
   0.00000000   0.00000000  -0.00000001          0.00      0.00     -0.00


     BFGS Geometry Optimization

     number of scf cycles    =   1
     number of bfgs steps    =   0

     enthalpy new            =     -31.6766499501 Ry

     new trust radius        =       0.0107942230 bohr
     new conv_thr            =       0.0000010000 Ry

     new unit-cell volume =   9275.72961 a.u.^3 (  1374.52130 Ang^3 )
     density =      0.25355 g/cm^3

CELL_PARAMETERS (alat= 16.84048341)
   0.999630982   0.000000171   0.000000000
  -0.499815343   0.865705861   0.000000000
   0.000000000   0.000000000   2.244265901

ATOMIC_POSITIONS (angstrom)
Al       0.000013860   2.577348835   0.000000000
Al       2.228367961   1.286555348   0.000000000
Al       4.454176799   2.571662746   0.000000000
Al       6.680007150   1.286573222   0.000000000
Al      -2.222136257   6.426220431   0.000000000
Al       2.222176221   6.426226357   0.000000000
Al       4.454199832   5.141820260   0.000000000



     Writing output data file 6al_planar_2x2_vcr.save/
     NEW-OLD atomic charge density approx. for the potential

     negative rho (up, down):  1.032E-07 0.000E+00
     extrapolated charge   20.98451, renormalised to   21.00000

     total cpu time spent up to now is       29.9 secs

     Self-consistent Calculation

     iteration #  1     ecut=    80.00 Ry     beta= 0.40
     Davidson diagonalization with overlap
     ethr =  1.00E-06,  avg # of iterations =  4.0

     negative rho (up, down):  5.120E-08 0.000E+00

     total cpu time spent up to now is       31.3 secs

     total energy              =     -31.67707450 Ry
     Harris-Foulkes estimate   =     -31.74698761 Ry
     estimated scf accuracy    <       0.00004869 Ry

     iteration #  2     ecut=    80.00 Ry     beta= 0.40
     Davidson diagonalization with overlap
     ethr =  2.32E-07,  avg # of iterations =  5.0

     negative rho (up, down):  3.982E-08 0.000E+00

     total cpu time spent up to now is       32.7 secs

     total energy              =     -31.67710640 Ry
     Harris-Foulkes estimate   =     -31.67713013 Ry
     estimated scf accuracy    <       0.00010204 Ry

     iteration #  3     ecut=    80.00 Ry     beta= 0.40
     Davidson diagonalization with overlap
     ethr =  2.32E-07,  avg # of iterations =  2.0

     negative rho (up, down):  3.454E-08 0.000E+00

     total cpu time spent up to now is       33.8 secs

     total energy              =     -31.67711290 Ry
     Harris-Foulkes estimate   =     -31.67711383 Ry
     estimated scf accuracy    <       0.00001236 Ry

     iteration #  4     ecut=    80.00 Ry     beta= 0.40
     Davidson diagonalization with overlap
     ethr =  5.88E-08,  avg # of iterations =  4.0

     total cpu time spent up to now is       34.9 secs

     total energy              =     -31.67711044 Ry
     Harris-Foulkes estimate   =     -31.67711321 Ry
     estimated scf accuracy    <       0.00000870 Ry

     iteration #  5     ecut=    80.00 Ry     beta= 0.40
     Davidson diagonalization with overlap
     ethr =  4.14E-08,  avg # of iterations =  3.0

     total cpu time spent up to now is       35.8 secs

     End of self-consistent calculation

          k = 0.0000 0.0000 0.0000 (111965 PWs)   bands (ev):

    -9.6435  -8.0714  -8.0712  -7.5171  -6.5569  -6.5568  -4.1949  -3.7976
    -3.2577  -2.8020  -2.8017  -2.2362  -2.2361  -1.7243  -0.8773

     the Fermi energy is    -2.6551 ev

!    total energy              =     -31.67711165 Ry
     Harris-Foulkes estimate   =     -31.67711224 Ry
     estimated scf accuracy    <       0.00000087 Ry

     The total energy is the sum of the following terms:

     one-electron contribution =    -103.83091960 Ry
     hartree contribution      =      54.00966633 Ry
     xc contribution           =     -13.75992178 Ry
     ewald contribution        =      31.91865825 Ry
     smearing contrib. (-TS)   =      -0.01459484 Ry

     convergence has been achieved in   5 iterations

     Forces acting on atoms (cartesian axes, Ry/au):

     atom    1 type  1   force =     0.00003060    0.01026328    0.00000000
     atom    2 type  1   force =     0.00158434    0.00091062    0.00000000
     atom    3 type  1   force =    -0.00001882    0.00001766    0.00000000
     atom    4 type  1   force =    -0.00159549    0.00091369    0.00000000
     atom    5 type  1   force =     0.00885885   -0.00512857    0.00000000
     atom    6 type  1   force =    -0.00885924   -0.00516054    0.00000000
     atom    7 type  1   force =    -0.00000024   -0.00181614    0.00000000

     Total force =     0.018035     Total SCF correction =     0.000750


     Computing stress (Cartesian axis) and pressure

          total   stress  (Ry/bohr**3)                   (kbar)     P=   -1.49
  -0.00001517   0.00000000   0.00000000         -2.23      0.00      0.00
   0.00000000  -0.00001518   0.00000000          0.00     -2.23      0.00
   0.00000000   0.00000000   0.00000004          0.00      0.00      0.01


     number of scf cycles    =   2
     number of bfgs steps    =   1

     enthalpy old            =     -31.6766499501 Ry
     enthalpy new            =     -31.6771116494 Ry

     CASE: enthalpy_new < enthalpy_old


     WARNING: bfgs curvature condition failed, Theta= 0.840
     new trust radius        =       0.0161853619 bohr
     new conv_thr            =       0.0000004617 Ry

     new unit-cell volume =   9265.01242 a.u.^3 (  1372.93317 Ang^3 )
     density =      0.25384 g/cm^3

CELL_PARAMETERS (alat= 16.84048341)
   0.999053418   0.000000304   0.000000000
  -0.499526445   0.865205452   0.000000000
   0.000000000   0.000000000   2.244265901

ATOMIC_POSITIONS (angstrom)
Al       0.000036810   2.584419180   0.000000000
Al       2.228666947   1.286730774   0.000000000
Al       4.451595486   2.570188334   0.000000000
Al       6.674548797   1.286749859   0.000000000
Al      -2.213457939   6.418225527   0.000000000
Al       2.213504575   6.418208681   0.000000000
Al       4.451620175   5.137024212   0.000000000



     Writing output data file 6al_planar_2x2_vcr.save/
     NEW-OLD atomic charge density approx. for the potential

     negative rho (up, down):  1.648E-07 0.000E+00
     extrapolated charge   20.97573, renormalised to   21.00000

     total cpu time spent up to now is       46.6 secs

     Self-consistent Calculation

     iteration #  1     ecut=    80.00 Ry     beta= 0.40
     Davidson diagonalization with overlap
     ethr =  1.00E-06,  avg # of iterations =  4.0

     negative rho (up, down):  8.329E-08 0.000E+00

     total cpu time spent up to now is       48.1 secs

     total energy              =     -31.67766418 Ry
     Harris-Foulkes estimate   =     -31.78732185 Ry
     estimated scf accuracy    <       0.00015896 Ry

     iteration #  2     ecut=    80.00 Ry     beta= 0.40
     Davidson diagonalization with overlap
     ethr =  7.57E-07,  avg # of iterations =  3.0

     negative rho (up, down):  6.512E-08 0.000E+00

     total cpu time spent up to now is       49.4 secs

     total energy              =     -31.67774876 Ry
     Harris-Foulkes estimate   =     -31.67782699 Ry
     estimated scf accuracy    <       0.00032931 Ry

     iteration #  3     ecut=    80.00 Ry     beta= 0.40
     Davidson diagonalization with overlap
     ethr =  7.57E-07,  avg # of iterations =  2.0

     negative rho (up, down):  5.748E-08 0.000E+00

     total cpu time spent up to now is       50.4 secs

     total energy              =     -31.67777265 Ry
     Harris-Foulkes estimate   =     -31.67777467 Ry
     estimated scf accuracy    <       0.00003096 Ry

     iteration #  4     ecut=    80.00 Ry     beta= 0.40
     Davidson diagonalization with overlap
     ethr =  1.47E-07,  avg # of iterations =  1.0

     total cpu time spent up to now is       51.4 secs

     total energy              =     -31.67776600 Ry
     Harris-Foulkes estimate   =     -31.67777333 Ry
     estimated scf accuracy    <       0.00002234 Ry

     iteration #  5     ecut=    80.00 Ry     beta= 0.40
     Davidson diagonalization with overlap
     ethr =  1.06E-07,  avg # of iterations =  3.0

     total cpu time spent up to now is       52.6 secs

     total energy              =     -31.67777046 Ry
     Harris-Foulkes estimate   =     -31.67777086 Ry
     estimated scf accuracy    <       0.00000261 Ry

     iteration #  6     ecut=    80.00 Ry     beta= 0.40
     Davidson diagonalization with overlap
     ethr =  1.24E-08,  avg # of iterations =  3.0

     total cpu time spent up to now is       53.7 secs

     total energy              =     -31.67777044 Ry
     Harris-Foulkes estimate   =     -31.67777077 Ry
     estimated scf accuracy    <       0.00000173 Ry

     iteration #  7     ecut=    80.00 Ry     beta= 0.40
     Davidson diagonalization with overlap
     ethr =  8.23E-09,  avg # of iterations =  2.0

     total cpu time spent up to now is       54.7 secs

     total energy              =     -31.67777020 Ry
     Harris-Foulkes estimate   =     -31.67777052 Ry
     estimated scf accuracy    <       0.00000090 Ry

     iteration #  8     ecut=    80.00 Ry     beta= 0.40
     Davidson diagonalization with overlap
     ethr =  4.26E-09,  avg # of iterations =  3.0

     total cpu time spent up to now is       55.9 secs

     End of self-consistent calculation

          k = 0.0000 0.0000 0.0000 (111965 PWs)   bands (ev):

    -9.6417  -8.0638  -8.0638  -7.5133  -6.5601  -6.5601  -4.2165  -3.7961
    -3.2509  -2.7939  -2.7938  -2.2304  -2.2304  -1.7215  -0.8803

     the Fermi energy is    -2.6476 ev

!    total energy              =     -31.67777032 Ry
     Harris-Foulkes estimate   =     -31.67777045 Ry
     estimated scf accuracy    <       0.00000016 Ry

     The total energy is the sum of the following terms:

     one-electron contribution =    -103.89380410 Ry
     hartree contribution      =      54.04200325 Ry
     xc contribution           =     -13.75800110 Ry
     ewald contribution        =      31.94690788 Ry
     smearing contrib. (-TS)   =      -0.01487625 Ry

     convergence has been achieved in   8 iterations

     Forces acting on atoms (cartesian axes, Ry/au):

     atom    1 type  1   force =     0.00001227    0.00949357    0.00000000
     atom    2 type  1   force =     0.00057771    0.00035134    0.00000000
     atom    3 type  1   force =    -0.00000086    0.00000027    0.00000000
     atom    4 type  1   force =    -0.00058757    0.00035013    0.00000000
     atom    5 type  1   force =     0.00821781   -0.00475893    0.00000000
     atom    6 type  1   force =    -0.00821345   -0.00476853    0.00000000
     atom    7 type  1   force =    -0.00000590   -0.00066785    0.00000000

     Total force =     0.016489     Total SCF correction =     0.000198


     Computing stress (Cartesian axis) and pressure

          total   stress  (Ry/bohr**3)                   (kbar)     P=   -1.54
  -0.00001579   0.00000000   0.00000000         -2.32      0.00      0.00
   0.00000000  -0.00001580   0.00000000          0.00     -2.32      0.00
   0.00000000   0.00000000   0.00000010          0.00      0.00      0.01


     number of scf cycles    =   3
     number of bfgs steps    =   2

     enthalpy old            =     -31.6771116494 Ry
     enthalpy new            =     -31.6777703243 Ry

     CASE: enthalpy_new < enthalpy_old

     new trust radius        =       0.0242640111 bohr
     new conv_thr            =       0.0000006587 Ry

     new unit-cell volume =   9247.81782 a.u.^3 (  1370.38520 Ang^3 )
     density =      0.25431 g/cm^3

CELL_PARAMETERS (alat= 16.84048341)
   0.998125866   0.000000516   0.000000000
  -0.499062486   0.864402180   0.000000000
   0.000000000   0.000000000   2.244265901

ATOMIC_POSITIONS (angstrom)
Al       0.000058412   2.594848100   0.000000000
Al       2.228329916   1.286558535   0.000000000
Al       4.447464742   2.567807420   0.000000000
Al       6.666601234   1.286576065   0.000000000
Al      -2.200302717   6.405840195   0.000000000
Al       2.200363928   6.405805179   0.000000000
Al       4.447472667   5.130256218   0.000000000



     Writing output data file 6al_planar_2x2_vcr.save/
     NEW-OLD atomic charge density approx. for the potential

     negative rho (up, down):  2.578E-07 0.000E+00
     extrapolated charge   20.96099, renormalised to   21.00000

     total cpu time spent up to now is       66.9 secs

     Self-consistent Calculation

     iteration #  1     ecut=    80.00 Ry     beta= 0.40
     Davidson diagonalization with overlap
     ethr =  1.00E-06,  avg # of iterations =  4.0

     negative rho (up, down):  1.326E-07 0.000E+00

     total cpu time spent up to now is       68.2 secs

     total energy              =     -31.67849746 Ry
     Harris-Foulkes estimate   =     -31.85495322 Ry
     estimated scf accuracy    <       0.00025204 Ry

     iteration #  2     ecut=    80.00 Ry     beta= 0.40
     Davidson diagonalization with overlap
     ethr =  1.20E-06,  avg # of iterations =  5.0

     negative rho (up, down):  1.053E-07 0.000E+00

     total cpu time spent up to now is       69.4 secs

     total energy              =     -31.67867191 Ry
     Harris-Foulkes estimate   =     -31.67880608 Ry
     estimated scf accuracy    <       0.00060017 Ry

     iteration #  3     ecut=    80.00 Ry     beta= 0.40
     Davidson diagonalization with overlap
     ethr =  1.20E-06,  avg # of iterations =  2.0

     negative rho (up, down):  8.915E-08 0.000E+00

     total cpu time spent up to now is       70.3 secs

     total energy              =     -31.67870663 Ry
     Harris-Foulkes estimate   =     -31.67871353 Ry
     estimated scf accuracy    <       0.00007925 Ry

     iteration #  4     ecut=    80.00 Ry     beta= 0.40
     Davidson diagonalization with overlap
     ethr =  3.77E-07,  avg # of iterations =  3.0

     negative rho (up, down):  1.751E-08 0.000E+00

     total cpu time spent up to now is       71.1 secs

     total energy              =     -31.67869063 Ry
     Harris-Foulkes estimate   =     -31.67870831 Ry
     estimated scf accuracy    <       0.00005228 Ry

     iteration #  5     ecut=    80.00 Ry     beta= 0.40
     Davidson diagonalization with overlap
     ethr =  2.49E-07,  avg # of iterations =  3.0

     total cpu time spent up to now is       72.2 secs

     total energy              =     -31.67870180 Ry
     Harris-Foulkes estimate   =     -31.67870227 Ry
     estimated scf accuracy    <       0.00000665 Ry

     iteration #  6     ecut=    80.00 Ry     beta= 0.40
     Davidson diagonalization with overlap
     ethr =  3.17E-08,  avg # of iterations =  5.0

     total cpu time spent up to now is       73.1 secs

     total energy              =     -31.67870152 Ry
     Harris-Foulkes estimate   =     -31.67870254 Ry
     estimated scf accuracy    <       0.00000517 Ry

     iteration #  7     ecut=    80.00 Ry     beta= 0.40
     Davidson diagonalization with overlap
     ethr =  2.46E-08,  avg # of iterations =  1.0

     total cpu time spent up to now is       74.0 secs

     total energy              =     -31.67870045 Ry
     Harris-Foulkes estimate   =     -31.67870168 Ry
     estimated scf accuracy    <       0.00000289 Ry

     iteration #  8     ecut=    80.00 Ry     beta= 0.40
     Davidson diagonalization with overlap
     ethr =  1.38E-08,  avg # of iterations =  3.0

     total cpu time spent up to now is       75.0 secs

     End of self-consistent calculation

          k = 0.0000 0.0000 0.0000 (111965 PWs)   bands (ev):

    -9.6386  -8.0522  -8.0521  -7.5065  -6.5632  -6.5632  -4.2473  -3.7935
    -3.2393  -2.7801  -2.7801  -2.2214  -2.2213  -1.7163  -0.8831

     the Fermi energy is    -2.6351 ev

!    total energy              =     -31.67870084 Ry
     Harris-Foulkes estimate   =     -31.67870130 Ry
     estimated scf accuracy    <       0.00000056 Ry

     The total energy is the sum of the following terms:

     one-electron contribution =    -104.00062883 Ry
     hartree contribution      =      54.09604080 Ry
     xc contribution           =     -13.75517297 Ry
     ewald contribution        =      31.99642722 Ry
     smearing contrib. (-TS)   =      -0.01536705 Ry

     convergence has been achieved in   8 iterations

     Forces acting on atoms (cartesian axes, Ry/au):

     atom    1 type  1   force =     0.00000387    0.00845932    0.00000000
     atom    2 type  1   force =    -0.00079607   -0.00042241    0.00000000
     atom    3 type  1   force =     0.00000071    0.00000262    0.00000000
     atom    4 type  1   force =     0.00079015   -0.00043886    0.00000000
     atom    5 type  1   force =     0.00734576   -0.00425208    0.00000000
     atom    6 type  1   force =    -0.00733131   -0.00424923    0.00000000
     atom    7 type  1   force =    -0.00001310    0.00090065    0.00000000

     Total force =     0.014760     Total SCF correction =     0.000642


     Computing stress (Cartesian axis) and pressure

          total   stress  (Ry/bohr**3)                   (kbar)     P=   -1.63
  -0.00001663  -0.00000000   0.00000000         -2.45     -0.00      0.00
  -0.00000000  -0.00001664   0.00000000         -0.00     -2.45      0.00
   0.00000000   0.00000000   0.00000008          0.00      0.00      0.01


     number of scf cycles    =   4
     number of bfgs steps    =   3

     enthalpy old            =     -31.6777703243 Ry
     enthalpy new            =     -31.6787008424 Ry

     CASE: enthalpy_new < enthalpy_old

     new trust radius        =       0.0363622305 bohr
     new conv_thr            =       0.0000008459 Ry

     new unit-cell volume =   9220.56642 a.u.^3 (  1366.34696 Ang^3 )
     density =      0.25506 g/cm^3

CELL_PARAMETERS (alat= 16.84048341)
   0.996654200   0.000000759   0.000000000
  -0.498326443   0.863127465   0.000000000
   0.000000000   0.000000000   2.244265901

ATOMIC_POSITIONS (angstrom)
Al       0.000086227   2.610221326   0.000000000
Al       2.226762764   1.285702185   0.000000000
Al       4.440911250   2.564031232   0.000000000
Al       6.655026973   1.285705079   0.000000000
Al      -2.180429045   6.386767059   0.000000000
Al       2.180519916   6.386711879   0.000000000
Al       4.440886291   5.120694594   0.000000000



     Writing output data file 6al_planar_2x2_vcr.save/
     NEW-OLD atomic charge density approx. for the potential

     negative rho (up, down):  4.188E-07 0.000E+00
     extrapolated charge   20.93799, renormalised to   21.00000

     total cpu time spent up to now is       85.7 secs

     Self-consistent Calculation

     iteration #  1     ecut=    80.00 Ry     beta= 0.40
     Davidson diagonalization with overlap
     ethr =  1.00E-06,  avg # of iterations =  5.0

     negative rho (up, down):  2.207E-07 0.000E+00

     total cpu time spent up to now is       87.1 secs

     total energy              =     -31.67953240 Ry
     Harris-Foulkes estimate   =     -31.96061281 Ry
     estimated scf accuracy    <       0.00053522 Ry

     iteration #  2     ecut=    80.00 Ry     beta= 0.40
     Davidson diagonalization with overlap
     ethr =  2.55E-06,  avg # of iterations =  4.0

     negative rho (up, down):  1.774E-07 0.000E+00

     total cpu time spent up to now is       88.3 secs

     total energy              =     -31.67993305 Ry
     Harris-Foulkes estimate   =     -31.68023172 Ry
     estimated scf accuracy    <       0.00136865 Ry

     iteration #  3     ecut=    80.00 Ry     beta= 0.40
     Davidson diagonalization with overlap
     ethr =  2.55E-06,  avg # of iterations =  2.0

     negative rho (up, down):  1.465E-07 0.000E+00

     total cpu time spent up to now is       89.2 secs

     total energy              =     -31.68000304 Ry
     Harris-Foulkes estimate   =     -31.68002260 Ry
     estimated scf accuracy    <       0.00019730 Ry

     iteration #  4     ecut=    80.00 Ry     beta= 0.40
     Davidson diagonalization with overlap
     ethr =  9.40E-07,  avg # of iterations =  1.0

     negative rho (up, down):  1.675E-08 0.000E+00

     total cpu time spent up to now is       90.1 secs

     total energy              =     -31.67996078 Ry
     Harris-Foulkes estimate   =     -31.68000716 Ry
     estimated scf accuracy    <       0.00012239 Ry

     iteration #  5     ecut=    80.00 Ry     beta= 0.40
     Davidson diagonalization with overlap
     ethr =  5.83E-07,  avg # of iterations =  5.0

     negative rho (up, down):  1.203E-08 0.000E+00

     total cpu time spent up to now is       91.2 secs

     total energy              =     -31.67999765 Ry
     Harris-Foulkes estimate   =     -31.67999897 Ry
     estimated scf accuracy    <       0.00002481 Ry

     iteration #  6     ecut=    80.00 Ry     beta= 0.40
     Davidson diagonalization with overlap
     ethr =  1.18E-07,  avg # of iterations =  1.0

     negative rho (up, down):  1.188E-08 0.000E+00

     total cpu time spent up to now is       92.1 secs

     total energy              =     -31.67999795 Ry
     Harris-Foulkes estimate   =     -31.67999826 Ry
     estimated scf accuracy    <       0.00002223 Ry

     iteration #  7     ecut=    80.00 Ry     beta= 0.40
     Davidson diagonalization with overlap
     ethr =  1.06E-07,  avg # of iterations =  1.0

     total cpu time spent up to now is       93.0 secs

     total energy              =     -31.67999613 Ry
     Harris-Foulkes estimate   =     -31.67999809 Ry
     estimated scf accuracy    <       0.00002151 Ry

     iteration #  8     ecut=    80.00 Ry     beta= 0.40
     Davidson diagonalization with overlap
     ethr =  1.02E-07,  avg # of iterations =  1.0

     total cpu time spent up to now is       93.9 secs

     total energy              =     -31.67998888 Ry
     Harris-Foulkes estimate   =     -31.67999636 Ry
     estimated scf accuracy    <       0.00001641 Ry

     iteration #  9     ecut=    80.00 Ry     beta= 0.40
     Davidson diagonalization with overlap
     ethr =  7.81E-08,  avg # of iterations =  3.0

     total cpu time spent up to now is       94.9 secs

     End of self-consistent calculation

          k = 0.0000 0.0000 0.0000 (111965 PWs)   bands (ev):

    -9.6356  -8.0368  -8.0364  -7.4970  -6.5685  -6.5682  -4.2959  -3.7907
    -3.2227  -2.7596  -2.7595  -2.2089  -2.2086  -1.7091  -0.8873

     the Fermi energy is    -2.6169 ev

!    total energy              =     -31.67999213 Ry
     Harris-Foulkes estimate   =     -31.67999250 Ry
     estimated scf accuracy    <       0.00000068 Ry

     The total energy is the sum of the following terms:

     one-electron contribution =    -104.18012040 Ry
     hartree contribution      =      54.18662044 Ry
     xc contribution           =     -13.75129350 Ry
     ewald contribution        =      32.08092860 Ry
     smearing contrib. (-TS)   =      -0.01612728 Ry

     convergence has been achieved in   9 iterations

     Forces acting on atoms (cartesian axes, Ry/au):

     atom    1 type  1   force =    -0.00000390    0.00702059    0.00000000
     atom    2 type  1   force =    -0.00260914   -0.00149943    0.00000000
     atom    3 type  1   force =    -0.00000726    0.00000554    0.00000000
     atom    4 type  1   force =     0.00262274   -0.00150780    0.00000000
     atom    5 type  1   force =     0.00607632   -0.00351475    0.00000000
     atom    6 type  1   force =    -0.00608326   -0.00350838    0.00000000
     atom    7 type  1   force =     0.00000450    0.00300422    0.00000000

     Total force =     0.013233     Total SCF correction =     0.000503


     Computing stress (Cartesian axis) and pressure

          total   stress  (Ry/bohr**3)                   (kbar)     P=   -1.74
  -0.00001782  -0.00000001   0.00000000         -2.62     -0.00      0.00
  -0.00000001  -0.00001783   0.00000000         -0.00     -2.62      0.00
   0.00000000   0.00000000   0.00000007          0.00      0.00      0.01


     number of scf cycles    =   5
     number of bfgs steps    =   4

     enthalpy old            =     -31.6787008424 Ry
     enthalpy new            =     -31.6799921328 Ry

     CASE: enthalpy_new < enthalpy_old

     new trust radius        =       0.0544629124 bohr
     new conv_thr            =       0.0000007021 Ry

     new unit-cell volume =   9177.54744 a.u.^3 (  1359.97220 Ang^3 )
     density =      0.25626 g/cm^3

CELL_PARAMETERS (alat= 16.84048341)
   0.994326694   0.000000914   0.000000000
  -0.497162556   0.861111396   0.000000000
   0.000000000   0.000000000   2.244265901

ATOMIC_POSITIONS (angstrom)
Al       0.000124250   2.632877872   0.000000000
Al       2.222957113   1.283552757   0.000000000
Al       4.430538643   2.558060719   0.000000000
Al       6.638064234   1.283539402   0.000000000
Al      -2.150455871   6.357446514   0.000000000
Al       2.150572286   6.357359644   0.000000000
Al       4.430483687   5.107112761   0.000000000



     Writing output data file 6al_planar_2x2_vcr.save/
     NEW-OLD atomic charge density approx. for the potential

     negative rho (up, down):  8.890E-07 0.000E+00
     extrapolated charge   20.90164, renormalised to   21.00000

     total cpu time spent up to now is      106.3 secs

     Self-consistent Calculation

     iteration #  1     ecut=    80.00 Ry     beta= 0.40
     Davidson diagonalization with overlap
     ethr =  1.00E-06,  avg # of iterations =  5.0

     negative rho (up, down):  4.819E-07 0.000E+00

     total cpu time spent up to now is      108.1 secs

     total energy              =     -31.68060996 Ry
     Harris-Foulkes estimate   =     -32.12803785 Ry
     estimated scf accuracy    <       0.00131734 Ry

     iteration #  2     ecut=    80.00 Ry     beta= 0.40
     Davidson diagonalization with overlap
     ethr =  6.27E-06,  avg # of iterations =  5.0

     negative rho (up, down):  3.915E-07 0.000E+00

     total cpu time spent up to now is      109.5 secs

     total energy              =     -31.68158533 Ry
     Harris-Foulkes estimate   =     -31.68236287 Ry
     estimated scf accuracy    <       0.00362278 Ry

     iteration #  3     ecut=    80.00 Ry     beta= 0.40
     Davidson diagonalization with overlap
     ethr =  6.27E-06,  avg # of iterations =  2.0

     negative rho (up, down):  3.241E-07 0.000E+00

     total cpu time spent up to now is      110.7 secs

     total energy              =     -31.68176418 Ry
     Harris-Foulkes estimate   =     -31.68181344 Ry
     estimated scf accuracy    <       0.00050503 Ry

     iteration #  4     ecut=    80.00 Ry     beta= 0.40
     Davidson diagonalization with overlap
     ethr =  2.40E-06,  avg # of iterations =  1.0

     negative rho (up, down):  3.526E-08 0.000E+00

     total cpu time spent up to now is      111.7 secs

     total energy              =     -31.68165914 Ry
     Harris-Foulkes estimate   =     -31.68177473 Ry
     estimated scf accuracy    <       0.00030671 Ry

     iteration #  5     ecut=    80.00 Ry     beta= 0.40
     Davidson diagonalization with overlap
     ethr =  1.46E-06,  avg # of iterations =  4.0

     negative rho (up, down):  3.473E-08 0.000E+00

     total cpu time spent up to now is      113.1 secs

     total energy              =     -31.68175244 Ry
     Harris-Foulkes estimate   =     -31.68175318 Ry
     estimated scf accuracy    <       0.00005445 Ry

     iteration #  6     ecut=    80.00 Ry     beta= 0.40
     Davidson diagonalization with overlap
     ethr =  2.59E-07,  avg # of iterations =  2.0

     negative rho (up, down):  3.423E-08 0.000E+00

     total cpu time spent up to now is      114.2 secs

     total energy              =     -31.68175394 Ry
     Harris-Foulkes estimate   =     -31.68175492 Ry
     estimated scf accuracy    <       0.00005456 Ry

     iteration #  7     ecut=    80.00 Ry     beta= 0.40
     Davidson diagonalization with overlap
     ethr =  2.59E-07,  avg # of iterations =  1.0

     negative rho (up, down):  1.800E-08 0.000E+00

     total cpu time spent up to now is      115.3 secs

     total energy              =     -31.68174773 Ry
     Harris-Foulkes estimate   =     -31.68175436 Ry
     estimated scf accuracy    <       0.00005109 Ry

     iteration #  8     ecut=    80.00 Ry     beta= 0.40
     Davidson diagonalization with overlap
     ethr =  2.43E-07,  avg # of iterations =  1.0

     total cpu time spent up to now is      116.4 secs

     total energy              =     -31.68174238 Ry
     Harris-Foulkes estimate   =     -31.68175132 Ry
     estimated scf accuracy    <       0.00004854 Ry

     iteration #  9     ecut=    80.00 Ry     beta= 0.40
     Davidson diagonalization with overlap
     ethr =  2.31E-07,  avg # of iterations =  4.0

     total cpu time spent up to now is      117.8 secs

     total energy              =     -31.68174240 Ry
     Harris-Foulkes estimate   =     -31.68175640 Ry
     estimated scf accuracy    <       0.00011429 Ry

     iteration # 10     ecut=    80.00 Ry     beta= 0.40
     Davidson diagonalization with overlap
     ethr =  2.31E-07,  avg # of iterations =  1.0

     total cpu time spent up to now is      119.0 secs

     total energy              =     -31.68173712 Ry
     Harris-Foulkes estimate   =     -31.68174467 Ry
     estimated scf accuracy    <       0.00004834 Ry

     iteration # 11     ecut=    80.00 Ry     beta= 0.40
     Davidson diagonalization with overlap
     ethr =  2.30E-07,  avg # of iterations =  1.0

     total cpu time spent up to now is      120.1 secs

     total energy              =     -31.68174061 Ry
     Harris-Foulkes estimate   =     -31.68173978 Ry
     estimated scf accuracy    <       0.00001042 Ry

     iteration # 12     ecut=    80.00 Ry     beta= 0.40
     Davidson diagonalization with overlap
     ethr =  4.96E-08,  avg # of iterations =  3.0

     total cpu time spent up to now is      121.5 secs

     total energy              =     -31.68174150 Ry
     Harris-Foulkes estimate   =     -31.68174123 Ry
     estimated scf accuracy    <       0.00001103 Ry

     iteration # 13     ecut=    80.00 Ry     beta= 0.40
     Davidson diagonalization with overlap
     ethr =  4.96E-08,  avg # of iterations =  1.0

     total cpu time spent up to now is      122.6 secs

     total energy              =     -31.68173957 Ry
     Harris-Foulkes estimate   =     -31.68174156 Ry
     estimated scf accuracy    <       0.00001148 Ry

     iteration # 14     ecut=    80.00 Ry     beta= 0.40
     Davidson diagonalization with overlap
     ethr =  4.96E-08,  avg # of iterations =  2.0

     total cpu time spent up to now is      123.7 secs

     total energy              =     -31.68174039 Ry
     Harris-Foulkes estimate   =     -31.68174055 Ry
     estimated scf accuracy    <       0.00000087 Ry

     iteration # 15     ecut=    80.00 Ry     beta= 0.40
     Davidson diagonalization with overlap
     ethr =  4.14E-09,  avg # of iterations =  6.0

     total cpu time spent up to now is      125.1 secs

     End of self-consistent calculation

          k = 0.0000 0.0000 0.0000 (111965 PWs)   bands (ev):

    -9.6313  -8.0131  -8.0126  -7.4824  -6.5741  -6.5737  -4.3666  -3.7866
    -3.1956  -2.7269  -2.7268  -2.1893  -2.1890  -1.6982  -0.8911

     the Fermi energy is    -2.5883 ev

!    total energy              =     -31.68174060 Ry
     Harris-Foulkes estimate   =     -31.68174079 Ry
     estimated scf accuracy    <       0.00000025 Ry

     The total energy is the sum of the following terms:

     one-electron contribution =    -104.48068955 Ry
     hartree contribution      =      54.33819656 Ry
     xc contribution           =     -13.74615196 Ry
     ewald contribution        =      32.22419100 Ry
     smearing contrib. (-TS)   =      -0.01728665 Ry

     convergence has been achieved in  15 iterations

     Forces acting on atoms (cartesian axes, Ry/au):

     atom    1 type  1   force =    -0.00001878    0.00506347    0.00000000
     atom    2 type  1   force =    -0.00500564   -0.00288076    0.00000000
     atom    3 type  1   force =    -0.00000043   -0.00000519    0.00000000
     atom    4 type  1   force =     0.00502679   -0.00289309    0.00000000
     atom    5 type  1   force =     0.00439456   -0.00253812    0.00000000
     atom    6 type  1   force =    -0.00440306   -0.00251446    0.00000000
     atom    7 type  1   force =     0.00000656    0.00576815    0.00000000

     Total force =     0.013318     Total SCF correction =     0.000265


     Computing stress (Cartesian axis) and pressure

          total   stress  (Ry/bohr**3)                   (kbar)     P=   -1.91
  -0.00001944  -0.00000002   0.00000000         -2.86     -0.00      0.00
  -0.00000002  -0.00001948   0.00000000         -0.00     -2.87      0.00
   0.00000000   0.00000000   0.00000003          0.00      0.00      0.00


     number of scf cycles    =   6
     number of bfgs steps    =   5

     enthalpy old            =     -31.6799921328 Ry
     enthalpy new            =     -31.6817405975 Ry

     CASE: enthalpy_new < enthalpy_old

     new trust radius        =       0.0815035566 bohr
     new conv_thr            =       0.0000005768 Ry

     new unit-cell volume =   9110.00900 a.u.^3 (  1349.96404 Ang^3 )
     density =      0.25816 g/cm^3

CELL_PARAMETERS (alat= 16.84048341)
   0.990662053   0.000000756   0.000000000
  -0.495330372   0.857936441   0.000000000
   0.000000000   0.000000000   2.244265901

ATOMIC_POSITIONS (angstrom)
Al       0.000171804   2.666140871   0.000000000
Al       2.215189105   1.279138790   0.000000000
Al       4.414210779   2.548647743   0.000000000
Al       6.613137567   1.279096416   0.000000000
Al      -2.105342332   6.312480623   0.000000000
Al       2.105491610   6.312354519   0.000000000
Al       4.414105458   5.087771246   0.000000000



     Writing output data file 6al_planar_2x2_vcr.save/
     NEW-OLD atomic charge density approx. for the potential

     negative rho (up, down):  2.609E-06 0.000E+00
     extrapolated charge   20.84444, renormalised to   21.00000

     total cpu time spent up to now is      137.0 secs

     Self-consistent Calculation

     iteration #  1     ecut=    80.00 Ry     beta= 0.40
     Davidson diagonalization with overlap
     ethr =  1.00E-06,  avg # of iterations =  7.0

     negative rho (up, down):  1.463E-06 0.000E+00

     total cpu time spent up to now is      139.0 secs

     total energy              =     -31.68138112 Ry
     Harris-Foulkes estimate   =     -32.39309236 Ry
     estimated scf accuracy    <       0.00295637 Ry

     iteration #  2     ecut=    80.00 Ry     beta= 0.40
     Davidson diagonalization with overlap
     ethr =  1.41E-05,  avg # of iterations =  5.0

     negative rho (up, down):  1.205E-06 0.000E+00

     total cpu time spent up to now is      140.4 secs

     total energy              =     -31.68364327 Ry
     Harris-Foulkes estimate   =     -31.68550979 Ry
     estimated scf accuracy    <       0.00894287 Ry

     iteration #  3     ecut=    80.00 Ry     beta= 0.40
     Davidson diagonalization with overlap
     ethr =  1.41E-05,  avg # of iterations =  2.0

     negative rho (up, down):  9.915E-07 0.000E+00

     total cpu time spent up to now is      141.5 secs

     total energy              =     -31.68407731 Ry
     Harris-Foulkes estimate   =     -31.68420263 Ry
     estimated scf accuracy    <       0.00125633 Ry

     iteration #  4     ecut=    80.00 Ry     beta= 0.40
     Davidson diagonalization with overlap
     ethr =  5.98E-06,  avg # of iterations =  1.0

     negative rho (up, down):  1.769E-07 0.000E+00

     total cpu time spent up to now is      142.5 secs

     total energy              =     -31.68384994 Ry
     Harris-Foulkes estimate   =     -31.68410155 Ry
     estimated scf accuracy    <       0.00073537 Ry

     iteration #  5     ecut=    80.00 Ry     beta= 0.40
     Davidson diagonalization with overlap
     ethr =  3.50E-06,  avg # of iterations =  5.0

     negative rho (up, down):  1.595E-07 0.000E+00

     total cpu time spent up to now is      143.9 secs

     total energy              =     -31.68402550 Ry
     Harris-Foulkes estimate   =     -31.68403286 Ry
     estimated scf accuracy    <       0.00008666 Ry

     iteration #  6     ecut=    80.00 Ry     beta= 0.40
     Davidson diagonalization with overlap
     ethr =  4.13E-07,  avg # of iterations =  3.0

     negative rho (up, down):  1.395E-07 0.000E+00

     total cpu time spent up to now is      145.0 secs

     total energy              =     -31.68402245 Ry
     Harris-Foulkes estimate   =     -31.68403259 Ry
     estimated scf accuracy    <       0.00007210 Ry

     iteration #  7     ecut=    80.00 Ry     beta= 0.40
     Davidson diagonalization with overlap
     ethr =  3.43E-07,  avg # of iterations =  1.0

     total cpu time spent up to now is      146.1 secs

     total energy              =     -31.68400604 Ry
     Harris-Foulkes estimate   =     -31.68402362 Ry
     estimated scf accuracy    <       0.00004768 Ry

     iteration #  8     ecut=    80.00 Ry     beta= 0.40
     Davidson diagonalization with overlap
     ethr =  2.27E-07,  avg # of iterations =  3.0

     total cpu time spent up to now is      147.4 secs

     total energy              =     -31.68401485 Ry
     Harris-Foulkes estimate   =     -31.68401590 Ry
     estimated scf accuracy    <       0.00000472 Ry

     iteration #  9     ecut=    80.00 Ry     beta= 0.40
     Davidson diagonalization with overlap
     ethr =  2.25E-08,  avg # of iterations =  6.0

     total cpu time spent up to now is      148.7 secs

     total energy              =     -31.68401473 Ry
     Harris-Foulkes estimate   =     -31.68401535 Ry
     estimated scf accuracy    <       0.00000202 Ry

     iteration # 10     ecut=    80.00 Ry     beta= 0.40
     Davidson diagonalization with overlap
     ethr =  9.62E-09,  avg # of iterations =  2.0

     total cpu time spent up to now is      149.9 secs

     total energy              =     -31.68401483 Ry
     Harris-Foulkes estimate   =     -31.68401494 Ry
     estimated scf accuracy    <       0.00000058 Ry

     iteration # 11     ecut=    80.00 Ry     beta= 0.40
     Davidson diagonalization with overlap
     ethr =  2.75E-09,  avg # of iterations =  3.0

     total cpu time spent up to now is      151.1 secs

     End of self-consistent calculation

          k = 0.0000 0.0000 0.0000 (111965 PWs)   bands (ev):

    -9.6293  -7.9802  -7.9796  -7.4642  -6.5841  -6.5835  -4.4804  -3.7835
    -3.1546  -2.6792  -2.6791  -2.1613  -2.1609  -1.6854  -0.8969

     the Fermi energy is    -2.5470 ev

!    total energy              =     -31.68401468 Ry
     Harris-Foulkes estimate   =     -31.68401496 Ry
     estimated scf accuracy    <       0.00000037 Ry

     The total energy is the sum of the following terms:

     one-electron contribution =    -104.98273207 Ry
     hartree contribution      =      54.59073997 Ry
     xc contribution           =     -13.73938199 Ry
     ewald contribution        =      32.46632273 Ry
     smearing contrib. (-TS)   =      -0.01896332 Ry

     convergence has been achieved in  11 iterations

     Forces acting on atoms (cartesian axes, Ry/au):

     atom    1 type  1   force =    -0.00002913    0.00233763    0.00000000
     atom    2 type  1   force =    -0.00805569   -0.00465944    0.00000000
     atom    3 type  1   force =    -0.00000081   -0.00000410    0.00000000
     atom    4 type  1   force =     0.00808985   -0.00466457    0.00000000
     atom    5 type  1   force =     0.00202187   -0.00116546    0.00000000
     atom    6 type  1   force =    -0.00204789   -0.00113838    0.00000000
     atom    7 type  1   force =     0.00002179    0.00929431    0.00000000

     Total force =     0.016631     Total SCF correction =     0.000368


     Computing stress (Cartesian axis) and pressure

          total   stress  (Ry/bohr**3)                   (kbar)     P=   -2.14
  -0.00002178  -0.00000003   0.00000000         -3.20     -0.00      0.00
  -0.00000003  -0.00002185   0.00000000         -0.00     -3.21      0.00
   0.00000000   0.00000000   0.00000001          0.00      0.00      0.00


     number of scf cycles    =   7
     number of bfgs steps    =   6

     enthalpy old            =     -31.6817405975 Ry
     enthalpy new            =     -31.6840146822 Ry

     CASE: enthalpy_new < enthalpy_old

     new trust radius        =       0.1218045630 bohr
     new conv_thr            =       0.0000009294 Ry

     new unit-cell volume =   9003.94279 a.u.^3 (  1334.24665 Ang^3 )
     density =      0.26120 g/cm^3

CELL_PARAMETERS (alat= 16.84048341)
   0.984879897   0.000000056   0.000000000
  -0.492439900   0.852926224   0.000000000
   0.000000000   0.000000000   2.244265901

ATOMIC_POSITIONS (angstrom)
Al       0.000237219   2.714649661   0.000000000
Al       2.200464919   1.270724912   0.000000000
Al       4.388445492   2.533792877   0.000000000
Al       6.576286023   1.270643705   0.000000000
Al      -2.037617734   6.243525321   0.000000000
Al       2.037795790   6.243336413   0.000000000
Al       4.388276728   5.060102461   0.000000000



     Writing output data file 6al_planar_2x2_vcr.save/
     NEW-OLD atomic charge density approx. for the potential

     negative rho (up, down):  7.108E-06 0.000E+00
     extrapolated charge   20.75282, renormalised to   21.00000

     total cpu time spent up to now is      162.1 secs

     Self-consistent Calculation

     iteration #  1     ecut=    80.00 Ry     beta= 0.40
     Davidson diagonalization with overlap
     ethr =  1.00E-06,  avg # of iterations =  8.0

     negative rho (up, down):  4.137E-06 0.000E+00

     total cpu time spent up to now is      164.3 secs

     total energy              =     -31.68046402 Ry
     Harris-Foulkes estimate   =     -32.82213687 Ry
     estimated scf accuracy    <       0.00696438 Ry

     iteration #  2     ecut=    80.00 Ry     beta= 0.40
     Davidson diagonalization with overlap
     ethr =  3.32E-05,  avg # of iterations =  5.0

     negative rho (up, down):  3.440E-06 0.000E+00

     total cpu time spent up to now is      165.7 secs

     total energy              =     -31.68586385 Ry
     Harris-Foulkes estimate   =     -31.69056801 Ry
     estimated scf accuracy    <       0.02315684 Ry

     iteration #  3     ecut=    80.00 Ry     beta= 0.40
     Davidson diagonalization with overlap
     ethr =  3.32E-05,  avg # of iterations =  2.0

     negative rho (up, down):  2.815E-06 0.000E+00

     total cpu time spent up to now is      166.9 secs

     total energy              =     -31.68689290 Ry
     Harris-Foulkes estimate   =     -31.68723184 Ry
     estimated scf accuracy    <       0.00329787 Ry

     iteration #  4     ecut=    80.00 Ry     beta= 0.40
     Davidson diagonalization with overlap
     ethr =  1.57E-05,  avg # of iterations =  1.0

     negative rho (up, down):  6.378E-07 0.000E+00

     total cpu time spent up to now is      167.9 secs

     total energy              =     -31.68636937 Ry
     Harris-Foulkes estimate   =     -31.68696494 Ry
     estimated scf accuracy    <       0.00184774 Ry

     iteration #  5     ecut=    80.00 Ry     beta= 0.40
     Davidson diagonalization with overlap
     ethr =  8.80E-06,  avg # of iterations =  4.0

     negative rho (up, down):  6.069E-07 0.000E+00

     total cpu time spent up to now is      169.2 secs

     total energy              =     -31.68680453 Ry
     Harris-Foulkes estimate   =     -31.68681196 Ry
     estimated scf accuracy    <       0.00014621 Ry

     iteration #  6     ecut=    80.00 Ry     beta= 0.40
     Davidson diagonalization with overlap
     ethr =  6.96E-07,  avg # of iterations =  3.0

     negative rho (up, down):  6.322E-07 0.000E+00

     total cpu time spent up to now is      170.4 secs

     total energy              =     -31.68682033 Ry
     Harris-Foulkes estimate   =     -31.68683397 Ry
     estimated scf accuracy    <       0.00016666 Ry

     iteration #  7     ecut=    80.00 Ry     beta= 0.40
     Davidson diagonalization with overlap
     ethr =  6.96E-07,  avg # of iterations =  1.0

     negative rho (up, down):  1.476E-07 0.000E+00

     total cpu time spent up to now is      171.5 secs

     total energy              =     -31.68674233 Ry
     Harris-Foulkes estimate   =     -31.68682230 Ry
     estimated scf accuracy    <       0.00012988 Ry

     iteration #  8     ecut=    80.00 Ry     beta= 0.40
     Davidson diagonalization with overlap
     ethr =  6.18E-07,  avg # of iterations =  5.0

     negative rho (up, down):  1.582E-08 0.000E+00

     total cpu time spent up to now is      172.9 secs

     total energy              =     -31.68680745 Ry
     Harris-Foulkes estimate   =     -31.68682180 Ry
     estimated scf accuracy    <       0.00015544 Ry

     iteration #  9     ecut=    80.00 Ry     beta= 0.40
     Davidson diagonalization with overlap
     ethr =  6.18E-07,  avg # of iterations =  1.0

     negative rho (up, down):  3.110E-08 0.000E+00

     total cpu time spent up to now is      174.1 secs

     total energy              =     -31.68678337 Ry
     Harris-Foulkes estimate   =     -31.68681016 Ry
     estimated scf accuracy    <       0.00009147 Ry

     iteration # 10     ecut=    80.00 Ry     beta= 0.40
     Davidson diagonalization with overlap
     ethr =  4.36E-07,  avg # of iterations =  4.0

     negative rho (up, down):  2.540E-08 0.000E+00

     total cpu time spent up to now is      175.3 secs

     total energy              =     -31.68679442 Ry
     Harris-Foulkes estimate   =     -31.68679475 Ry
     estimated scf accuracy    <       0.00000611 Ry

     iteration # 11     ecut=    80.00 Ry     beta= 0.40
     Davidson diagonalization with overlap
     ethr =  2.91E-08,  avg # of iterations =  5.0

     total cpu time spent up to now is      176.9 secs

     total energy              =     -31.68679216 Ry
     Harris-Foulkes estimate   =     -31.68679943 Ry
     estimated scf accuracy    <       0.00001432 Ry

     iteration # 12     ecut=    80.00 Ry     beta= 0.40
     Davidson diagonalization with overlap
     ethr =  2.91E-08,  avg # of iterations =  5.0

     total cpu time spent up to now is      178.3 secs

     total energy              =     -31.68679663 Ry
     Harris-Foulkes estimate   =     -31.68679607 Ry
     estimated scf accuracy    <       0.00000227 Ry

     iteration # 13     ecut=    80.00 Ry     beta= 0.40
     Davidson diagonalization with overlap
     ethr =  1.08E-08,  avg # of iterations =  1.0

     total cpu time spent up to now is      179.3 secs

     total energy              =     -31.68679566 Ry
     Harris-Foulkes estimate   =     -31.68679678 Ry
     estimated scf accuracy    <       0.00000339 Ry

     iteration # 14     ecut=    80.00 Ry     beta= 0.40
     Davidson diagonalization with overlap
     ethr =  1.08E-08,  avg # of iterations =  1.0

     total cpu time spent up to now is      180.3 secs

     End of self-consistent calculation

          k = 0.0000 0.0000 0.0000 (111965 PWs)   bands (ev):

    -9.6314  -7.9324  -7.9314  -7.4432  -6.5986  -6.5977  -4.6596  -3.7827
    -3.0878  -2.6086  -2.6085  -2.1195  -2.1188  -1.6721  -0.9037

     the Fermi energy is    -2.4858 ev

!    total energy              =     -31.68679556 Ry
     Harris-Foulkes estimate   =     -31.68679592 Ry
     estimated scf accuracy    <       0.00000047 Ry

     The total energy is the sum of the following terms:

     one-electron contribution =    -105.83137735 Ry
     hartree contribution      =      55.01648105 Ry
     xc contribution           =     -13.73100718 Ry
     ewald contribution        =      32.88058308 Ry
     smearing contrib. (-TS)   =      -0.02147516 Ry

     convergence has been achieved in  14 iterations

     Forces acting on atoms (cartesian axes, Ry/au):

     atom    1 type  1   force =    -0.00003518   -0.00144227    0.00000000
     atom    2 type  1   force =    -0.01195971   -0.00690826    0.00000000
     atom    3 type  1   force =    -0.00001366   -0.00000706    0.00000000
     atom    4 type  1   force =     0.01201187   -0.00691163    0.00000000
     atom    5 type  1   force =    -0.00125346    0.00071181    0.00000000
     atom    6 type  1   force =     0.00121969    0.00074056    0.00000000
     atom    7 type  1   force =     0.00003043    0.01381686    0.00000000

     Total force =     0.024081     Total SCF correction =     0.000417


     Computing stress (Cartesian axis) and pressure

          total   stress  (Ry/bohr**3)                   (kbar)     P=   -2.47
  -0.00002514  -0.00000004   0.00000000         -3.70     -0.01      0.00
  -0.00000004  -0.00002524   0.00000000         -0.01     -3.71      0.00
   0.00000000   0.00000000  -0.00000005          0.00      0.00     -0.01


     number of scf cycles    =   8
     number of bfgs steps    =   7

     enthalpy old            =     -31.6840146822 Ry
     enthalpy new            =     -31.6867955626 Ry

     CASE: enthalpy_new < enthalpy_old

     new trust radius        =       0.1816397904 bohr
     new conv_thr            =       0.0000010000 Ry

     new unit-cell volume =   8836.68003 a.u.^3 (  1309.46086 Ang^3 )
     density =      0.26614 g/cm^3

CELL_PARAMETERS (alat= 16.84048341)
   0.975692857  -0.000001677   0.000000000
  -0.487847881   0.844964500   0.000000000
   0.000000000   0.000000000   2.244265901

ATOMIC_POSITIONS (angstrom)
Al       0.000332521   2.784528983   0.000000000
Al       2.173287895   1.255160721   0.000000000
Al       4.347491736   2.510181580   0.000000000
Al       6.521535066   1.255021878   0.000000000
Al      -1.936250672   6.137546032   0.000000000
Al       1.936453894   6.137254769   0.000000000
Al       4.347249314   5.020516118   0.000000000



     Writing output data file 6al_planar_2x2_vcr.save/
     NEW-OLD atomic charge density approx. for the potential

     negative rho (up, down):  1.306E-05 0.000E+00
     extrapolated charge   20.60283, renormalised to   21.00000

     total cpu time spent up to now is      191.2 secs

     Self-consistent Calculation

     iteration #  1     ecut=    80.00 Ry     beta= 0.40
     Davidson diagonalization with overlap
     ethr =  1.00E-06,  avg # of iterations =  9.0

     negative rho (up, down):  7.812E-06 0.000E+00

     total cpu time spent up to now is      193.6 secs

     total energy              =     -31.67432094 Ry
     Harris-Foulkes estimate   =     -33.53823815 Ry
     estimated scf accuracy    <       0.01694973 Ry

     iteration #  2     ecut=    80.00 Ry     beta= 0.40
     Davidson diagonalization with overlap
     ethr =  8.07E-05,  avg # of iterations =  5.0

     negative rho (up, down):  6.512E-06 0.000E+00

     total cpu time spent up to now is      195.1 secs

     total energy              =     -31.68743128 Ry
     Harris-Foulkes estimate   =     -31.69933170 Ry
     estimated scf accuracy    <       0.05954992 Ry

     iteration #  3     ecut=    80.00 Ry     beta= 0.40
     Davidson diagonalization with overlap
     ethr =  8.07E-05,  avg # of iterations =  2.0

     negative rho (up, down):  5.303E-06 0.000E+00

     total cpu time spent up to now is      196.2 secs

     total energy              =     -31.69004664 Ry
     Harris-Foulkes estimate   =     -31.69091692 Ry
     estimated scf accuracy    <       0.00833482 Ry

     iteration #  4     ecut=    80.00 Ry     beta= 0.40
     Davidson diagonalization with overlap
     ethr =  3.97E-05,  avg # of iterations =  1.0

     negative rho (up, down):  1.495E-06 0.000E+00

     total cpu time spent up to now is      197.3 secs

     total energy              =     -31.68887331 Ry
     Harris-Foulkes estimate   =     -31.69024090 Ry
     estimated scf accuracy    <       0.00456535 Ry

     iteration #  5     ecut=    80.00 Ry     beta= 0.40
     Davidson diagonalization with overlap
     ethr =  2.17E-05,  avg # of iterations =  4.0

     negative rho (up, down):  1.418E-06 0.000E+00

     total cpu time spent up to now is      198.6 secs

     total energy              =     -31.68989512 Ry
     Harris-Foulkes estimate   =     -31.68991653 Ry
     estimated scf accuracy    <       0.00032785 Ry

     iteration #  6     ecut=    80.00 Ry     beta= 0.40
     Davidson diagonalization with overlap
     ethr =  1.56E-06,  avg # of iterations =  3.0

     negative rho (up, down):  1.432E-06 0.000E+00

     total cpu time spent up to now is      200.0 secs

     total energy              =     -31.68993102 Ry
     Harris-Foulkes estimate   =     -31.68997294 Ry
     estimated scf accuracy    <       0.00036459 Ry

     iteration #  7     ecut=    80.00 Ry     beta= 0.40
     Davidson diagonalization with overlap
     ethr =  1.56E-06,  avg # of iterations =  1.0

     negative rho (up, down):  1.352E-08 0.000E+00

     total cpu time spent up to now is      201.1 secs

     total energy              =     -31.68978955 Ry
     Harris-Foulkes estimate   =     -31.68993850 Ry
     estimated scf accuracy    <       0.00024852 Ry

     iteration #  8     ecut=    80.00 Ry     beta= 0.40
     Davidson diagonalization with overlap
     ethr =  1.18E-06,  avg # of iterations =  5.0

     negative rho (up, down):  4.740E-08 0.000E+00

     total cpu time spent up to now is      202.7 secs

     total energy              =     -31.68987065 Ry
     Harris-Foulkes estimate   =     -31.69002639 Ry
     estimated scf accuracy    <       0.00065571 Ry

     iteration #  9     ecut=    80.00 Ry     beta= 0.40
     Davidson diagonalization with overlap
     ethr =  1.18E-06,  avg # of iterations =  3.0

     negative rho (up, down):  1.789E-08 0.000E+00

     total cpu time spent up to now is      204.0 secs

     total energy              =     -31.68988627 Ry
     Harris-Foulkes estimate   =     -31.68990860 Ry
     estimated scf accuracy    <       0.00011506 Ry

     iteration # 10     ecut=    80.00 Ry     beta= 0.40
     Davidson diagonalization with overlap
     ethr =  5.48E-07,  avg # of iterations =  1.0

     negative rho (up, down):  3.676E-08 0.000E+00

     total cpu time spent up to now is      205.1 secs

     total energy              =     -31.68988029 Ry
     Harris-Foulkes estimate   =     -31.68989338 Ry
     estimated scf accuracy    <       0.00003243 Ry

     iteration # 11     ecut=    80.00 Ry     beta= 0.40
     Davidson diagonalization with overlap
     ethr =  1.54E-07,  avg # of iterations =  5.0

     total cpu time spent up to now is      206.7 secs

     total energy              =     -31.68989374 Ry
     Harris-Foulkes estimate   =     -31.68990469 Ry
     estimated scf accuracy    <       0.00003371 Ry

     iteration # 12     ecut=    80.00 Ry     beta= 0.40
     Davidson diagonalization with overlap
     ethr =  1.54E-07,  avg # of iterations =  2.0

     total cpu time spent up to now is      207.9 secs

     total energy              =     -31.68989536 Ry
     Harris-Foulkes estimate   =     -31.68989694 Ry
     estimated scf accuracy    <       0.00000319 Ry

     iteration # 13     ecut=    80.00 Ry     beta= 0.40
     Davidson diagonalization with overlap
     ethr =  1.52E-08,  avg # of iterations =  5.0

     total cpu time spent up to now is      209.4 secs

     total energy              =     -31.68989633 Ry
     Harris-Foulkes estimate   =     -31.68989769 Ry
     estimated scf accuracy    <       0.00000503 Ry

     iteration # 14     ecut=    80.00 Ry     beta= 0.40
     Davidson diagonalization with overlap
     ethr =  1.52E-08,  avg # of iterations =  4.0

     total cpu time spent up to now is      210.6 secs

     End of self-consistent calculation

          k = 0.0000 0.0000 0.0000 (111965 PWs)   bands (ev):

    -9.6446  -7.8615  -7.8599  -7.4285  -6.6172  -6.6159  -4.9360  -3.7891
    -2.9725  -2.5067  -2.5065  -2.0551  -2.0540  -1.6662  -0.9079

     the Fermi energy is    -2.3964 ev

!    total energy              =     -31.68989700 Ry
     Harris-Foulkes estimate   =     -31.68989697 Ry
     estimated scf accuracy    <       0.00000011 Ry

     The total energy is the sum of the following terms:

     one-electron contribution =    -107.30735417 Ry
     hartree contribution      =      55.75946306 Ry
     xc contribution           =     -13.72356885 Ry
     ewald contribution        =      33.60706183 Ry
     smearing contrib. (-TS)   =      -0.02549887 Ry

     convergence has been achieved in  14 iterations

     Forces acting on atoms (cartesian axes, Ry/au):

     atom    1 type  1   force =    -0.00006349   -0.00671368    0.00000000
     atom    2 type  1   force =    -0.01661799   -0.00955331    0.00000000
     atom    3 type  1   force =    -0.00000008   -0.00002347    0.00000000
     atom    4 type  1   force =     0.01669302   -0.00955289    0.00000000
     atom    5 type  1   force =    -0.00584172    0.00329880    0.00000000
     atom    6 type  1   force =     0.00578052    0.00335118    0.00000000
     atom    7 type  1   force =     0.00004974    0.01919338    0.00000000

     Total force =     0.035220     Total SCF correction =     0.000180


     Computing stress (Cartesian axis) and pressure

          total   stress  (Ry/bohr**3)                   (kbar)     P=   -2.93
  -0.00002981  -0.00000006   0.00000000         -4.38     -0.01      0.00
  -0.00000006  -0.00002996   0.00000000         -0.01     -4.41      0.00
   0.00000000   0.00000000  -0.00000002          0.00      0.00     -0.00


     number of scf cycles    =   9
     number of bfgs steps    =   8

     enthalpy old            =     -31.6867955626 Ry
     enthalpy new            =     -31.6898970026 Ry

     CASE: enthalpy_new < enthalpy_old

     new trust radius        =       0.2601208950 bohr
     new conv_thr            =       0.0000010000 Ry

     new unit-cell volume =   8593.97815 a.u.^3 (  1273.49616 Ang^3 )
     density =      0.27366 g/cm^3

CELL_PARAMETERS (alat= 16.84048341)
   0.962207988  -0.000005450   0.000000000
  -0.481108714   0.833275735   0.000000000
   0.000000000   0.000000000   2.244265901

ATOMIC_POSITIONS (angstrom)
Al       0.000432309   2.873054306   0.000000000
Al       2.127095295   1.228694168   0.000000000
Al       4.287383240   2.475492705   0.000000000
Al       6.447505983   1.228479070   0.000000000
Al      -1.799658094   5.988944888   0.000000000
Al       1.799840828   5.988524217   0.000000000
Al       4.287057206   4.969674465   0.000000000



     Writing output data file 6al_planar_2x2_vcr.save/
     NEW-OLD atomic charge density approx. for the potential

     negative rho (up, down):  1.751E-05 0.000E+00
     extrapolated charge   20.40742, renormalised to   21.00000

     total cpu time spent up to now is      221.6 secs

     Self-consistent Calculation

     iteration #  1     ecut=    80.00 Ry     beta= 0.40
     Davidson diagonalization with overlap
     ethr =  1.00E-06,  avg # of iterations = 11.0

     negative rho (up, down):  1.070E-05 0.000E+00

     total cpu time spent up to now is      224.1 secs

     total energy              =     -31.66249004 Ry
     Harris-Foulkes estimate   =     -34.51026362 Ry
     estimated scf accuracy    <       0.03156847 Ry

     iteration #  2     ecut=    80.00 Ry     beta= 0.40
     Davidson diagonalization with overlap
     ethr =  1.50E-04,  avg # of iterations =  4.0

     negative rho (up, down):  9.004E-06 0.000E+00

     total cpu time spent up to now is      225.5 secs

     total energy              =     -31.68908015 Ry
     Harris-Foulkes estimate   =     -31.71064632 Ry
     estimated scf accuracy    <       0.10825343 Ry

     iteration #  3     ecut=    80.00 Ry     beta= 0.40
     Davidson diagonalization with overlap
     ethr =  1.50E-04,  avg # of iterations =  2.0

     negative rho (up, down):  7.333E-06 0.000E+00

     total cpu time spent up to now is      226.6 secs

     total energy              =     -31.69356730 Ry
     Harris-Foulkes estimate   =     -31.69528115 Ry
     estimated scf accuracy    <       0.01667653 Ry

     iteration #  4     ecut=    80.00 Ry     beta= 0.40
     Davidson diagonalization with overlap
     ethr =  7.94E-05,  avg # of iterations =  1.0

     negative rho (up, down):  2.927E-06 0.000E+00

     total cpu time spent up to now is      227.6 secs

     total energy              =     -31.69152295 Ry
     Harris-Foulkes estimate   =     -31.69395047 Ry
     estimated scf accuracy    <       0.00940510 Ry

     iteration #  5     ecut=    80.00 Ry     beta= 0.40
     Davidson diagonalization with overlap
     ethr =  4.48E-05,  avg # of iterations =  4.0

     negative rho (up, down):  2.479E-06 0.000E+00

     total cpu time spent up to now is      228.9 secs

     total energy              =     -31.69307070 Ry
     Harris-Foulkes estimate   =     -31.69316230 Ry
     estimated scf accuracy    <       0.00059887 Ry

     iteration #  6     ecut=    80.00 Ry     beta= 0.40
     Davidson diagonalization with overlap
     ethr =  2.85E-06,  avg # of iterations =  5.0

     negative rho (up, down):  1.569E-06 0.000E+00

     total cpu time spent up to now is      230.2 secs

     total energy              =     -31.69312397 Ry
     Harris-Foulkes estimate   =     -31.69320681 Ry
     estimated scf accuracy    <       0.00030964 Ry

     iteration #  7     ecut=    80.00 Ry     beta= 0.40
     Davidson diagonalization with overlap
     ethr =  1.47E-06,  avg # of iterations =  5.0

     negative rho (up, down):  2.194E-07 0.000E+00

     total cpu time spent up to now is      231.4 secs

     total energy              =     -31.69300427 Ry
     Harris-Foulkes estimate   =     -31.69327400 Ry
     estimated scf accuracy    <       0.00067728 Ry

     iteration #  8     ecut=    80.00 Ry     beta= 0.40
     Davidson diagonalization with overlap
     ethr =  1.47E-06,  avg # of iterations =  5.0

     negative rho (up, down):  5.768E-08 0.000E+00

     total cpu time spent up to now is      232.6 secs

     total energy              =     -31.69318342 Ry
     Harris-Foulkes estimate   =     -31.69319969 Ry
     estimated scf accuracy    <       0.00016660 Ry

     iteration #  9     ecut=    80.00 Ry     beta= 0.40
     Davidson diagonalization with overlap
     ethr =  7.93E-07,  avg # of iterations =  1.0

     negative rho (up, down):  2.013E-08 0.000E+00

     total cpu time spent up to now is      233.7 secs

     total energy              =     -31.69314084 Ry
     Harris-Foulkes estimate   =     -31.69318611 Ry
     estimated scf accuracy    <       0.00011544 Ry

     iteration # 10     ecut=    80.00 Ry     beta= 0.40
     Davidson diagonalization with overlap
     ethr =  5.50E-07,  avg # of iterations =  4.0

     total cpu time spent up to now is      235.0 secs

     total energy              =     -31.69316454 Ry
     Harris-Foulkes estimate   =     -31.69316676 Ry
     estimated scf accuracy    <       0.00000801 Ry

     iteration # 11     ecut=    80.00 Ry     beta= 0.40
     Davidson diagonalization with overlap
     ethr =  3.82E-08,  avg # of iterations =  3.0

     total cpu time spent up to now is      236.4 secs

     total energy              =     -31.69316544 Ry
     Harris-Foulkes estimate   =     -31.69316603 Ry
     estimated scf accuracy    <       0.00000154 Ry

     iteration # 12     ecut=    80.00 Ry     beta= 0.40
     Davidson diagonalization with overlap
     ethr =  7.34E-09,  avg # of iterations =  5.0

     total cpu time spent up to now is      237.8 secs

     End of self-consistent calculation

          k = 0.0000 0.0000 0.0000 (111965 PWs)   bands (ev):

    -9.6876  -7.7722  -7.7700  -7.4583  -6.6438  -6.6416  -5.3234  -3.8167
    -2.7930  -2.3831  -2.3826  -1.9680  -1.9666  -1.6910  -0.9060

     the Fermi energy is    -2.2855 ev

!    total energy              =     -31.69316530 Ry
     Harris-Foulkes estimate   =     -31.69316612 Ry
     estimated scf accuracy    <       0.00000100 Ry

     The total energy is the sum of the following terms:

     one-electron contribution =    -109.72391361 Ry
     hartree contribution      =      56.97412623 Ry
     xc contribution           =     -13.72327020 Ry
     ewald contribution        =      34.81228600 Ry
     smearing contrib. (-TS)   =      -0.03239371 Ry

     convergence has been achieved in  12 iterations

     Forces acting on atoms (cartesian axes, Ry/au):

     atom    1 type  1   force =    -0.00017514   -0.01231180    0.00000000
     atom    2 type  1   force =    -0.02050026   -0.01176215    0.00000000
     atom    3 type  1   force =     0.00002350   -0.00002847    0.00000000
     atom    4 type  1   force =     0.02064986   -0.01171273    0.00000000
     atom    5 type  1   force =    -0.01075700    0.00597928    0.00000000
     atom    6 type  1   force =     0.01062698    0.00612221    0.00000000
     atom    7 type  1   force =     0.00013206    0.02371366    0.00000000

     Total force =     0.046239     Total SCF correction =     0.000582


     Computing stress (Cartesian axis) and pressure

          total   stress  (Ry/bohr**3)                   (kbar)     P=   -3.47
  -0.00003531  -0.00000008   0.00000000         -5.19     -0.01      0.00
  -0.00000008  -0.00003560   0.00000000         -0.01     -5.24      0.00
   0.00000000   0.00000000   0.00000007          0.00      0.00      0.01


     number of scf cycles    =  10
     number of bfgs steps    =   9

     enthalpy old            =     -31.6898970026 Ry
     enthalpy new            =     -31.6931652957 Ry

     CASE: enthalpy_new < enthalpy_old

     new trust radius        =       0.3307357061 bohr
     new conv_thr            =       0.0000010000 Ry

     new unit-cell volume =   8290.34884 a.u.^3 (  1228.50293 Ang^3 )
     density =      0.28368 g/cm^3

CELL_PARAMETERS (alat= 16.84048341)
   0.945071207  -0.000012093   0.000000000
  -0.472546076   0.818414867   0.000000000
   0.000000000   0.000000000   2.244265901

ATOMIC_POSITIONS (angstrom)
Al       0.000425077   2.965375961   0.000000000
Al       2.061089807   1.190845804   0.000000000
Al       4.211010228   2.431366506   0.000000000
Al       6.360824628   1.190586024   0.000000000
Al      -1.643616623   5.810009231   0.000000000
Al       1.643657232   5.809516784   0.000000000
Al       4.210660186   4.913493887   0.000000000



     Writing output data file 6al_planar_2x2_vcr.save/
     NEW-OLD atomic charge density approx. for the potential

     negative rho (up, down):  1.554E-05 0.000E+00
     extrapolated charge   20.23151, renormalised to   21.00000

     total cpu time spent up to now is      248.8 secs

     Self-consistent Calculation

     iteration #  1     ecut=    80.00 Ry     beta= 0.40
     Davidson diagonalization with overlap
     ethr =  1.00E-06,  avg # of iterations = 12.0

     negative rho (up, down):  9.626E-06 0.000E+00

     total cpu time spent up to now is      251.3 secs

     total energy              =     -31.65276991 Ry
     Harris-Foulkes estimate   =     -35.46568478 Ry
     estimated scf accuracy    <       0.04345211 Ry

     iteration #  2     ecut=    80.00 Ry     beta= 0.40
     Davidson diagonalization with overlap
     ethr =  2.07E-04,  avg # of iterations =  4.0

     negative rho (up, down):  7.981E-06 0.000E+00

     total cpu time spent up to now is      252.7 secs

     total energy              =     -31.69459443 Ry
     Harris-Foulkes estimate   =     -31.71810862 Ry
     estimated scf accuracy    <       0.11404977 Ry

     iteration #  3     ecut=    80.00 Ry     beta= 0.40
     Davidson diagonalization with overlap
     ethr =  2.07E-04,  avg # of iterations =  2.0

     negative rho (up, down):  6.421E-06 0.000E+00

     total cpu time spent up to now is      253.8 secs

     total energy              =     -31.69912113 Ry
     Harris-Foulkes estimate   =     -31.70122131 Ry
     estimated scf accuracy    <       0.02045244 Ry

     iteration #  4     ecut=    80.00 Ry     beta= 0.40
     Davidson diagonalization with overlap
     ethr =  9.74E-05,  avg # of iterations =  1.0

     negative rho (up, down):  2.057E-06 0.000E+00

     total cpu time spent up to now is      254.7 secs

     total energy              =     -31.69582995 Ry
     Harris-Foulkes estimate   =     -31.69950504 Ry
     estimated scf accuracy    <       0.01239206 Ry

     iteration #  5     ecut=    80.00 Ry     beta= 0.40
     Davidson diagonalization with overlap
     ethr =  5.90E-05,  avg # of iterations =  4.0

     negative rho (up, down):  1.833E-06 0.000E+00

     total cpu time spent up to now is      255.9 secs

     total energy              =     -31.69774959 Ry
     Harris-Foulkes estimate   =     -31.69784064 Ry
     estimated scf accuracy    <       0.00047348 Ry

     iteration #  6     ecut=    80.00 Ry     beta= 0.40
     Davidson diagonalization with overlap
     ethr =  2.25E-06,  avg # of iterations =  5.0

     negative rho (up, down):  5.630E-07 0.000E+00

     total cpu time spent up to now is      257.3 secs

     total energy              =     -31.69784885 Ry
     Harris-Foulkes estimate   =     -31.69790390 Ry
     estimated scf accuracy    <       0.00025514 Ry

     iteration #  7     ecut=    80.00 Ry     beta= 0.40
     Davidson diagonalization with overlap
     ethr =  1.21E-06,  avg # of iterations =  4.0

     negative rho (up, down):  1.555E-07 0.000E+00

     total cpu time spent up to now is      258.5 secs

     total energy              =     -31.69779469 Ry
     Harris-Foulkes estimate   =     -31.69792278 Ry
     estimated scf accuracy    <       0.00030213 Ry

     iteration #  8     ecut=    80.00 Ry     beta= 0.40
[...]
     estimated scf accuracy    <       0.00000032 Ry

     The total energy is the sum of the following terms:

     one-electron contribution =    -129.49367478 Ry
     hartree contribution      =      66.78473156 Ry
     xc contribution           =     -13.96670231 Ry
     ewald contribution        =      45.01059192 Ry
     smearing contrib. (-TS)   =      -0.07010461 Ry

     convergence has been achieved in   5 iterations

     Forces acting on atoms (cartesian axes, Ry/au):

     atom    1 type  1   force =     0.00024215   -0.00239040    0.00000000
     atom    2 type  1   force =     0.00850940    0.00593009    0.00000000
     atom    3 type  1   force =     0.00004080    0.00008982    0.00000000
     atom    4 type  1   force =    -0.00873654    0.00583294    0.00000000
     atom    5 type  1   force =    -0.00223916    0.00046632    0.00000000
     atom    6 type  1   force =     0.00234942    0.00026434    0.00000000
     atom    7 type  1   force =    -0.00016608   -0.01019312    0.00000000

     Total force =     0.018397     Total SCF correction =     0.000129


     Computing stress (Cartesian axis) and pressure

          total   stress  (Ry/bohr**3)                   (kbar)     P=   -1.51
  -0.00001524  -0.00000031   0.00000000         -2.24     -0.05      0.00
  -0.00000031  -0.00001573   0.00000000         -0.05     -2.31      0.00
   0.00000000   0.00000000   0.00000026          0.00      0.00      0.04


     number of scf cycles    = 297
     number of bfgs steps    =  19

     enthalpy old            =     -31.7354847094 Ry
     enthalpy new            =     -31.7351582173 Ry

     CASE: enthalpy_new > enthalpy_old

     new trust radius        =       0.0025343181 bohr
     new conv_thr            =       0.0000009305 Ry

     new unit-cell volume =   7201.44990 a.u.^3 (  1067.14476 Ang^3 )
     density =      0.32658 g/cm^3

CELL_PARAMETERS (alat= 16.84048341)
   0.881025903  -0.000089562   0.000000000
  -0.440590515   0.762638632   0.000000000
   0.000000000   0.000000000   2.244265901

ATOMIC_POSITIONS (angstrom)
Al      -0.000794443   2.923102168   0.000000000
Al       1.677942540   0.965326325   0.000000000
Al       3.925892698   2.263898419   0.000000000
Al       6.173518187   0.965376438   0.000000000
Al      -1.391785774   5.336997352   0.000000000
Al       1.390102908   5.336957438   0.000000000
Al       3.925677785   4.860132357   0.000000000



     Writing output data file 6al_planar_2x2_vcr.save/
     NEW-OLD atomic charge density approx. for the potential

     negative rho (up, down):  2.867E-07 0.000E+00
     extrapolated charge   21.01259, renormalised to   21.00000

     total cpu time spent up to now is     4910.8 secs

     Self-consistent Calculation

     iteration #  1     ecut=    80.00 Ry     beta= 0.40
     Davidson diagonalization with overlap
     ethr =  1.00E-06,  avg # of iterations =  4.0

     negative rho (up, down):  1.485E-07 0.000E+00

     total cpu time spent up to now is     4912.1 secs

     total energy              =     -31.73482005 Ry
     Harris-Foulkes estimate   =     -31.66299456 Ry
     estimated scf accuracy    <       0.00006829 Ry

     iteration #  2     ecut=    80.00 Ry     beta= 0.40
     Davidson diagonalization with overlap
     ethr =  3.25E-07,  avg # of iterations =  2.0

     negative rho (up, down):  1.067E-07 0.000E+00

     total cpu time spent up to now is     4913.1 secs

     total energy              =     -31.73485777 Ry
     Harris-Foulkes estimate   =     -31.73486900 Ry
     estimated scf accuracy    <       0.00004219 Ry

     iteration #  3     ecut=    80.00 Ry     beta= 0.40
     Davidson diagonalization with overlap
     ethr =  2.01E-07,  avg # of iterations =  1.0

     negative rho (up, down):  8.604E-08 0.000E+00

     total cpu time spent up to now is     4914.0 secs

     total energy              =     -31.73486015 Ry
     Harris-Foulkes estimate   =     -31.73486097 Ry
     estimated scf accuracy    <       0.00000602 Ry

     iteration #  4     ecut=    80.00 Ry     beta= 0.40
     Davidson diagonalization with overlap
     ethr =  2.87E-08,  avg # of iterations =  1.0

     negative rho (up, down):  1.743E-08 0.000E+00

     total cpu time spent up to now is     4915.0 secs

     total energy              =     -31.73485903 Ry
     Harris-Foulkes estimate   =     -31.73486038 Ry
     estimated scf accuracy    <       0.00000315 Ry

     iteration #  5     ecut=    80.00 Ry     beta= 0.40
     Davidson diagonalization with overlap
     ethr =  1.50E-08,  avg # of iterations =  2.0

     total cpu time spent up to now is     4915.9 secs

     End of self-consistent calculation

          k = 0.0000 0.0000 0.0000 (111965 PWs)   bands (ev):

   -10.5878  -8.0260  -8.0143  -7.9275  -7.0805  -6.8509  -6.8390  -4.3246
    -2.1280  -2.0014  -1.9999  -1.8656  -1.8576  -1.7804  -1.0056

     the Fermi energy is    -2.0049 ev

!    total energy              =     -31.73485974 Ry
     Harris-Foulkes estimate   =     -31.73485983 Ry
     estimated scf accuracy    <       0.00000018 Ry

     The total energy is the sum of the following terms:

     one-electron contribution =    -129.40679483 Ry
     hartree contribution      =      66.73643337 Ry
     xc contribution           =     -13.96305814 Ry
     ewald contribution        =      44.96859760 Ry
     smearing contrib. (-TS)   =      -0.07003775 Ry

     convergence has been achieved in   5 iterations

     Forces acting on atoms (cartesian axes, Ry/au):

     atom    1 type  1   force =     0.00025097   -0.00255106    0.00000000
     atom    2 type  1   force =     0.00918876    0.00650487    0.00000000
     atom    3 type  1   force =     0.00003669    0.00012252    0.00000000
     atom    4 type  1   force =    -0.00941676    0.00638282    0.00000000
     atom    5 type  1   force =    -0.00228785    0.00040599    0.00000000
     atom    6 type  1   force =     0.00243727    0.00021572    0.00000000
     atom    7 type  1   force =    -0.00020908   -0.01108085    0.00000000

     Total force =     0.019924     Total SCF correction =     0.000067


     Computing stress (Cartesian axis) and pressure

          total   stress  (Ry/bohr**3)                   (kbar)     P=   -1.63
  -0.00001640  -0.00000028   0.00000000         -2.41     -0.04      0.00
  -0.00000028  -0.00001676   0.00000000         -0.04     -2.46      0.00
   0.00000000   0.00000000  -0.00000018          0.00      0.00     -0.03


     number of scf cycles    = 298
     number of bfgs steps    =  19

     enthalpy old            =     -31.7354847094 Ry
     enthalpy new            =     -31.7348597414 Ry

     CASE: enthalpy_new > enthalpy_old

     new trust radius        =       0.0001703835 bohr
     new conv_thr            =       0.0000009305 Ry

     new unit-cell volume =   7202.89950 a.u.^3 (  1067.35957 Ang^3 )
     density =      0.32651 g/cm^3

CELL_PARAMETERS (alat= 16.84048341)
   0.881113864  -0.000088119   0.000000000
  -0.440633245   0.762715270   0.000000000
   0.000000000   0.000000000   2.244265901

ATOMIC_POSITIONS (angstrom)
Al      -0.000824266   2.923494313   0.000000000
Al       1.677116802   0.964693641   0.000000000
Al       3.926285544   2.264106811   0.000000000
Al       6.175162174   0.964768033   0.000000000
Al      -1.391815101   5.337606639   0.000000000
Al       1.390128285   5.337597839   0.000000000
Al       3.926105346   4.861847000   0.000000000



     Writing output data file 6al_planar_2x2_vcr.save/
     NEW-OLD atomic charge density approx. for the potential

     negative rho (up, down):  7.013E-08 0.000E+00
     extrapolated charge   21.00422, renormalised to   21.00000

     total cpu time spent up to now is     4927.0 secs

     Self-consistent Calculation

     iteration #  1     ecut=    80.00 Ry     beta= 0.40
     Davidson diagonalization with overlap
     ethr =  1.00E-06,  avg # of iterations =  1.0

     Threshold (ethr) on eigenvalues was too large:
     Diagonalizing with lowered threshold

     Davidson diagonalization with overlap
     ethr =  1.08E-08,  avg # of iterations =  5.0

     negative rho (up, down):  3.522E-08 0.000E+00

     total cpu time spent up to now is     4929.1 secs

     total energy              =     -31.73475125 Ry
     Harris-Foulkes estimate   =     -31.71064741 Ry
     estimated scf accuracy    <       0.00000514 Ry

     iteration #  2     ecut=    80.00 Ry     beta= 0.40
     Davidson diagonalization with overlap
     ethr =  2.45E-08,  avg # of iterations =  5.0

     negative rho (up, down):  2.637E-08 0.000E+00

     total cpu time spent up to now is     4930.3 secs

     total energy              =     -31.73475445 Ry
     Harris-Foulkes estimate   =     -31.73475590 Ry
     estimated scf accuracy    <       0.00000597 Ry

     iteration #  3     ecut=    80.00 Ry     beta= 0.40
     Davidson diagonalization with overlap
     ethr =  2.45E-08,  avg # of iterations =  1.0

     negative rho (up, down):  2.245E-08 0.000E+00

     total cpu time spent up to now is     4931.1 secs

     total energy              =     -31.73475474 Ry
     Harris-Foulkes estimate   =     -31.73475484 Ry
     estimated scf accuracy    <       0.00000103 Ry

     iteration #  4     ecut=    80.00 Ry     beta= 0.40
     Davidson diagonalization with overlap
     ethr =  4.91E-09,  avg # of iterations =  3.0

     total cpu time spent up to now is     4932.0 secs

     End of self-consistent calculation

          k = 0.0000 0.0000 0.0000 (111965 PWs)   bands (ev):

   -10.5904  -8.0297  -8.0176  -7.9291  -7.0858  -6.8526  -6.8401  -4.3262
    -2.1305  -2.0045  -2.0030  -1.8680  -1.8598  -1.7818  -1.0134

     the Fermi energy is    -2.0073 ev

!    total energy              =     -31.73475435 Ry
     Harris-Foulkes estimate   =     -31.73475477 Ry
     estimated scf accuracy    <       0.00000064 Ry

     The total energy is the sum of the following terms:

     one-electron contribution =    -129.38368027 Ry
     hartree contribution      =      66.72722335 Ry
     xc contribution           =     -13.96289073 Ry
     ewald contribution        =      44.95454050 Ry
     smearing contrib. (-TS)   =      -0.06994720 Ry

     convergence has been achieved in   4 iterations

     Forces acting on atoms (cartesian axes, Ry/au):

     atom    1 type  1   force =     0.00026183   -0.00261331    0.00000000
     atom    2 type  1   force =     0.00942213    0.00671603    0.00000000
     atom    3 type  1   force =     0.00002727    0.00013245    0.00000000
     atom    4 type  1   force =    -0.00966341    0.00658425    0.00000000
     atom    5 type  1   force =    -0.00232638    0.00038176    0.00000000
     atom    6 type  1   force =     0.00249999    0.00019003    0.00000000
     atom    7 type  1   force =    -0.00022144   -0.01139122    0.00000000

     Total force =     0.020474     Total SCF correction =     0.000203


     Computing stress (Cartesian axis) and pressure

          total   stress  (Ry/bohr**3)                   (kbar)     P=   -1.64
  -0.00001679  -0.00000026   0.00000000         -2.47     -0.04      0.00
  -0.00000026  -0.00001711   0.00000000         -0.04     -2.52      0.00
   0.00000000   0.00000000   0.00000037          0.00      0.00      0.05


     number of scf cycles    = 299
     number of bfgs steps    =  19

     enthalpy old            =     -31.7354847094 Ry
     enthalpy new            =     -31.7347543532 Ry

     CASE: enthalpy_new > enthalpy_old

     new trust radius        =       0.0000007542 bohr

     trust_radius < trust_radius_min

     resetting bfgs history

     new conv_thr            =       0.0000009305 Ry

     new unit-cell volume =   7197.13063 a.u.^3 (  1066.50471 Ang^3 )
     density =      0.32677 g/cm^3

CELL_PARAMETERS (alat= 16.84048341)
   0.880763761  -0.000093865   0.000000000
  -0.440463169   0.762410232   0.000000000
   0.000000000   0.000000000   2.244265901

ATOMIC_POSITIONS (angstrom)
Al      -0.000705604   2.921933603   0.000000000
Al       1.680402232   0.967210960   0.000000000
Al       3.924721925   2.263277333   0.000000000
Al       6.168619940   0.967188778   0.000000000
Al      -1.391698253   5.335181628   0.000000000
Al       1.390027134   5.335049013   0.000000000
Al       3.924403613   4.855023800   0.000000000



     Writing output data file 6al_planar_2x2_vcr.save/
     NEW-OLD atomic charge density approx. for the potential

     negative rho (up, down):  4.115E-07 0.000E+00
     extrapolated charge   20.98318, renormalised to   21.00000

     total cpu time spent up to now is     4943.6 secs

     Self-consistent Calculation

     iteration #  1     ecut=    80.00 Ry     beta= 0.40
     Davidson diagonalization with overlap
     ethr =  1.00E-06,  avg # of iterations =  4.0

     negative rho (up, down):  2.177E-07 0.000E+00

     total cpu time spent up to now is     4944.8 secs

     total energy              =     -31.73510330 Ry
     Harris-Foulkes estimate   =     -31.83124155 Ry
     estimated scf accuracy    <       0.00007321 Ry

     iteration #  2     ecut=    80.00 Ry     beta= 0.40
     Davidson diagonalization with overlap
     ethr =  3.49E-07,  avg # of iterations =  2.0

     negative rho (up, down):  1.621E-07 0.000E+00

     total cpu time spent up to now is     4945.8 secs

     total energy              =     -31.73515688 Ry
     Harris-Foulkes estimate   =     -31.73517227 Ry
     estimated scf accuracy    <       0.00006454 Ry

     iteration #  3     ecut=    80.00 Ry     beta= 0.40
     Davidson diagonalization with overlap
     ethr =  3.07E-07,  avg # of iterations =  1.0

     negative rho (up, down):  1.315E-07 0.000E+00

     total cpu time spent up to now is     4946.6 secs

     total energy              =     -31.73515906 Ry
     Harris-Foulkes estimate   =     -31.73516068 Ry
     estimated scf accuracy    <       0.00001292 Ry

     iteration #  4     ecut=    80.00 Ry     beta= 0.40
     Davidson diagonalization with overlap
     ethr =  6.15E-08,  avg # of iterations =  1.0

     negative rho (up, down):  2.741E-08 0.000E+00

     total cpu time spent up to now is     4947.5 secs

     total energy              =     -31.73515673 Ry
     Harris-Foulkes estimate   =     -31.73515943 Ry
     estimated scf accuracy    <       0.00000693 Ry

     iteration #  5     ecut=    80.00 Ry     beta= 0.40
     Davidson diagonalization with overlap
     ethr =  3.30E-08,  avg # of iterations =  2.0

     total cpu time spent up to now is     4948.4 secs

     End of self-consistent calculation

          k = 0.0000 0.0000 0.0000 (111965 PWs)   bands (ev):

   -10.5895  -8.0239  -8.0136  -7.9320  -7.0737  -6.8558  -6.8456  -4.3257
    -2.1307  -2.0022  -2.0005  -1.8642  -1.8572  -1.7826  -0.9911

     the Fermi energy is    -2.0057 ev

!    total energy              =     -31.73515822 Ry
     Harris-Foulkes estimate   =     -31.73515841 Ry
     estimated scf accuracy    <       0.00000032 Ry

     The total energy is the sum of the following terms:

     one-electron contribution =    -129.49366947 Ry
     hartree contribution      =      66.78472543 Ry
     xc contribution           =     -13.96670142 Ry
     ewald contribution        =      45.01059192 Ry
     smearing contrib. (-TS)   =      -0.07010468 Ry

     convergence has been achieved in   5 iterations

     Forces acting on atoms (cartesian axes, Ry/au):

     atom    1 type  1   force =     0.00024267   -0.00239014    0.00000000
     atom    2 type  1   force =     0.00850950    0.00593023    0.00000000
     atom    3 type  1   force =     0.00004012    0.00009015    0.00000000
     atom    4 type  1   force =    -0.00873640    0.00583297    0.00000000
     atom    5 type  1   force =    -0.00223905    0.00046617    0.00000000
     atom    6 type  1   force =     0.00234922    0.00026392    0.00000000
     atom    7 type  1   force =    -0.00016606   -0.01019330    0.00000000

     Total force =     0.018397     Total SCF correction =     0.000130


     Computing stress (Cartesian axis) and pressure

          total   stress  (Ry/bohr**3)                   (kbar)     P=   -1.51
  -0.00001524  -0.00000031   0.00000000         -2.24     -0.05      0.00
  -0.00000031  -0.00001573   0.00000000         -0.05     -2.31      0.00
   0.00000000   0.00000000   0.00000026          0.00      0.00      0.04


     number of scf cycles    = 300
     number of bfgs steps    =  19

     enthalpy old            =     -31.7354847094 Ry
     enthalpy new            =     -31.7351582177 Ry

     CASE: enthalpy_new > enthalpy_old

     new trust radius        =       0.0025343198 bohr
     new conv_thr            =       0.0000009305 Ry

     new unit-cell volume =   7201.44990 a.u.^3 (  1067.14476 Ang^3 )
     density =      0.32658 g/cm^3

CELL_PARAMETERS (alat= 16.84048341)
   0.881025903  -0.000089562   0.000000000
  -0.440590515   0.762638632   0.000000000
   0.000000000   0.000000000   2.244265901

ATOMIC_POSITIONS (angstrom)
Al      -0.000794443   2.923102168   0.000000000
Al       1.677942541   0.965326325   0.000000000
Al       3.925892698   2.263898419   0.000000000
Al       6.173518186   0.965376438   0.000000000
Al      -1.391785774   5.336997352   0.000000000
Al       1.390102908   5.336957437   0.000000000
Al       3.925677784   4.860132355   0.000000000



     Writing output data file 6al_planar_2x2_vcr.save/
     NEW-OLD atomic charge density approx. for the potential

     negative rho (up, down):  2.867E-07 0.000E+00
     extrapolated charge   21.01259, renormalised to   21.00000

     Writing output data file 6al_planar_2x2_vcr.save/
 
     init_run     :      3.38s CPU      3.56s WALL (       1 calls)
     electrons    :   1635.27s CPU   1695.91s WALL (     300 calls)
     update_pot   :   1157.57s CPU   1161.16s WALL (     300 calls)
     forces       :    633.78s CPU    636.32s WALL (     300 calls)
     stress       :   1393.02s CPU   1428.67s WALL (     300 calls)

     Called by init_run:
     wfcinit      :      0.37s CPU      0.41s WALL (       1 calls)
     potinit      :      1.19s CPU      1.24s WALL (       1 calls)
     hinit0       :      1.53s CPU      1.61s WALL (       1 calls)

     Called by electrons:
     c_bands      :   1054.77s CPU   1082.37s WALL (    1675 calls)
     sum_band     :    227.77s CPU    237.59s WALL (    1675 calls)
     v_of_rho     :    343.80s CPU    353.86s WALL (    1884 calls)
     mix_rho      :     47.35s CPU     48.71s WALL (    1675 calls)

     Called by c_bands:
     init_us_2    :     36.71s CPU     37.30s WALL (    3351 calls)
     cegterg      :    804.89s CPU    830.43s WALL (    1675 calls)

     Called by sum_band:

     Called by *egterg:
     h_psi        :    734.20s CPU    759.25s WALL (    5814 calls)
     g_psi        :      4.91s CPU      4.92s WALL (    4138 calls)
     cdiaghg      :      2.73s CPU      2.77s WALL (    5422 calls)

     Called by h_psi:
     h_psi:pot    :    730.09s CPU    754.02s WALL (    5814 calls)
     h_psi:calbec :     49.83s CPU     50.12s WALL (    5814 calls)
     vloc_psi     :    621.10s CPU    644.64s WALL (    5814 calls)
     add_vuspsi   :     59.10s CPU     59.22s WALL (    5814 calls)

     General routines
     calbec       :     66.66s CPU     67.26s WALL (    7314 calls)
     fft          :    316.74s CPU    333.85s WALL (   26734 calls)
     ffts         :     14.63s CPU     15.79s WALL (    1675 calls)
     fftw         :    622.68s CPU    649.05s WALL (  156351 calls)
 
     Parallel routines
     fft_scatt_xy :    173.56s CPU    174.21s WALL (  184760 calls)
     fft_scatt_yz :    280.27s CPU    318.23s WALL (  184760 calls)
 
     PWSCF        :     1h20m CPU       20h 1m WALL

      22h
 
   This run was terminated on:  12:37:34  25Nov2020            

=------------------------------------------------------------------------------=
   JOB DONE.
=------------------------------------------------------------------------------=
