
     Program PWSCF v.6.3MaX starts on 25Nov2020 at 11:12:51 

     This program is part of the open-source Quantum ESPRESSO suite
     for quantum simulation of materials; please cite
         "P. Giannozzi et al., J. Phys.:Condens. Matter 21 395502 (2009);
         "P. Giannozzi et al., J. Phys.:Condens. Matter 29 465901 (2017);
          URL http://www.quantum-espresso.org", 
     in publications or presentations arising from this work. More details at
     http://www.quantum-espresso.org/quote

     Parallel version (MPI), running on     8 processors

     MPI processes distributed on     4 nodes
     R & G space division:  proc/nbgrp/npool/nimage =       8
     Waiting for input...
     Reading input from standard input

     Current dimensions of program PWSCF are:
     Max number of different atomic species (ntypx) = 10
     Max number of k-points (npk) =  40000
     Max angular momentum in pseudopotentials (lmaxx) =  3

     Subspace diagonalization in iterative solution of the eigenvalue problem:
     a serial algorithm will be used

     Message from routine find_sym:
     Not a group! Trying with lower acceptance parameter...
     Message from routine find_sym:
     Symmetry operations form a group
 
     Parallelization info
     --------------------
     sticks:   dense  smooth     PW     G-vecs:    dense   smooth      PW
     Min         778     778    194               112122   112122   13992
     Max         779     779    195               112130   112130   14001
     Sum        6229    6229   1555               896999   896999  111965
 


     bravais-lattice index     =            4
     lattice parameter (alat)  =      16.8405  a.u.
     unit-cell volume          =    9282.5779 (a.u.)^3
     number of atoms/cell      =            7
     number of atomic types    =            1
     number of electrons       =        21.00
     number of Kohn-Sham states=           15
     kinetic-energy cutoff     =      80.0000  Ry
     charge density cutoff     =     320.0000  Ry
     convergence threshold     =      1.0E-06
     mixing beta               =       0.4000
     number of iterations used =            8  plain     mixing
     Exchange-correlation      = PBE ( 1  4  3  4 0 0)
     nstep                     =          300


     celldm(1)=  16.840483  celldm(2)=   0.000000  celldm(3)=   2.244266
     celldm(4)=   0.000000  celldm(5)=   0.000000  celldm(6)=   0.000000

     crystal axes: (cart. coord. in units of alat)
               a(1) = (   1.000000   0.000000   0.000000 )  
               a(2) = (  -0.500000   0.866025   0.000000 )  
               a(3) = (   0.000000   0.000000   2.244266 )  

     reciprocal axes: (cart. coord. in units 2 pi/alat)
               b(1) = (  1.000000  0.577350  0.000000 )  
               b(2) = (  0.000000  1.154701  0.000000 )  
               b(3) = (  0.000000  0.000000  0.445580 )  


     PseudoPot. # 1 for Al read from file:
     ./Al.upf
     MD5 check sum: 4974d48a734c9d7d1eb6780a1419d19d
     Pseudo is Norm-conserving + core correction, Zval =  3.0
     Generated using ONCVPSP code by D. R. Hamann
     Using radial grid of 1876 points,  6 beta functions with: 
                l(1) =   0
                l(2) =   0
                l(3) =   1
                l(4) =   1
                l(5) =   2
                l(6) =   2

     atomic species   valence    mass     pseudopotential
        Al             3.00    29.98200     Al( 1.00)

      2 Sym. Ops. (no inversion) found



   Cartesian axes

     site n.     atom                  positions (alat units)
         1           Al  tau(   1) = (   0.0000001   0.2886786   0.0000000  )
         2           Al  tau(   2) = (   0.2500030   0.1443392   0.0000000  )
         3           Al  tau(   3) = (   0.7500053   0.1443413   0.0000000  )
         4           Al  tau(   4) = (  -0.2499995   0.7216943   0.0000000  )
         5           Al  tau(   5) = (   0.0000036   0.5773550   0.0000000  )
         6           Al  tau(   6) = (   0.2500029   0.7216963   0.0000000  )
         7           Al  tau(   7) = (   0.5000059   0.5773570   0.0000000  )

     number of k points=     1  Methfessel-Paxton smearing, width (Ry)=  0.0500
                       cart. coord. in units 2pi/alat
        k(    1) = (   0.0000000   0.0000000   0.0000000), wk =   2.0000000

     Dense  grid:   896999 G-vectors     FFT dimensions: (  96,  96, 216)

     Estimated max dynamical RAM per process >     127.42 MB

     Estimated total dynamical RAM >    1019.39 MB

     Initial potential from superposition of free atoms

     starting charge   20.98287, renormalised to   21.00000

     negative rho (up, down):  2.280E-05 0.000E+00
     Starting wfcs are   28 randomized atomic wfcs

     total cpu time spent up to now is        6.5 secs

     Self-consistent Calculation

     iteration #  1     ecut=    80.00 Ry     beta= 0.40
     Davidson diagonalization with overlap
     ethr =  1.00E-02,  avg # of iterations =  2.0

     total cpu time spent up to now is        8.6 secs

     total energy              =     -31.66569011 Ry
     Harris-Foulkes estimate   =     -31.75221113 Ry
     estimated scf accuracy    <       0.28974273 Ry

     iteration #  2     ecut=    80.00 Ry     beta= 0.40
     Davidson diagonalization with overlap
     ethr =  1.38E-03,  avg # of iterations =  2.0

     total cpu time spent up to now is        9.7 secs

     total energy              =     -31.66517425 Ry
     Harris-Foulkes estimate   =     -31.68738692 Ry
     estimated scf accuracy    <       0.06469859 Ry

     iteration #  3     ecut=    80.00 Ry     beta= 0.40
     Davidson diagonalization with overlap
     ethr =  3.08E-04,  avg # of iterations =  2.0

     total cpu time spent up to now is       11.1 secs

     total energy              =     -31.67534860 Ry
     Harris-Foulkes estimate   =     -31.67789933 Ry
     estimated scf accuracy    <       0.00993147 Ry

     iteration #  4     ecut=    80.00 Ry     beta= 0.40
     Davidson diagonalization with overlap
     ethr =  4.73E-05,  avg # of iterations =  4.0

     total cpu time spent up to now is       12.4 secs

     total energy              =     -31.67548648 Ry
     Harris-Foulkes estimate   =     -31.67676092 Ry
     estimated scf accuracy    <       0.00283502 Ry

     iteration #  5     ecut=    80.00 Ry     beta= 0.40
     Davidson diagonalization with overlap
     ethr =  1.35E-05,  avg # of iterations =  9.0

     total cpu time spent up to now is       14.1 secs

     total energy              =     -31.67642756 Ry
     Harris-Foulkes estimate   =     -31.67761116 Ry
     estimated scf accuracy    <       0.00498590 Ry

     iteration #  6     ecut=    80.00 Ry     beta= 0.40
     Davidson diagonalization with overlap
     ethr =  1.35E-05,  avg # of iterations =  1.0

     total cpu time spent up to now is       15.2 secs

     total energy              =     -31.67634422 Ry
     Harris-Foulkes estimate   =     -31.67676715 Ry
     estimated scf accuracy    <       0.00093495 Ry

     iteration #  7     ecut=    80.00 Ry     beta= 0.40
     Davidson diagonalization with overlap
     ethr =  4.45E-06,  avg # of iterations =  3.0

     total cpu time spent up to now is       16.7 secs

     total energy              =     -31.67662942 Ry
     Harris-Foulkes estimate   =     -31.67667054 Ry
     estimated scf accuracy    <       0.00015001 Ry

     iteration #  8     ecut=    80.00 Ry     beta= 0.40
     Davidson diagonalization with overlap
     ethr =  7.14E-07,  avg # of iterations =  4.0

     total cpu time spent up to now is       17.9 secs

     total energy              =     -31.67664054 Ry
     Harris-Foulkes estimate   =     -31.67665232 Ry
     estimated scf accuracy    <       0.00002749 Ry

     iteration #  9     ecut=    80.00 Ry     beta= 0.40
     Davidson diagonalization with overlap
     ethr =  1.31E-07,  avg # of iterations =  3.0

     total cpu time spent up to now is       19.3 secs

     total energy              =     -31.67664990 Ry
     Harris-Foulkes estimate   =     -31.67665003 Ry
     estimated scf accuracy    <       0.00000154 Ry

     iteration # 10     ecut=    80.00 Ry     beta= 0.40
     Davidson diagonalization with overlap
     ethr =  7.33E-09,  avg # of iterations =  2.0

     total cpu time spent up to now is       20.5 secs

     total energy              =     -31.67665002 Ry
     Harris-Foulkes estimate   =     -31.67665023 Ry
     estimated scf accuracy    <       0.00000100 Ry

     iteration # 11     ecut=    80.00 Ry     beta= 0.40
     Davidson diagonalization with overlap
     ethr =  4.78E-09,  avg # of iterations =  1.0

     total cpu time spent up to now is       21.6 secs

     End of self-consistent calculation

          k = 0.0000 0.0000 0.0000 (111965 PWs)   bands (ev):

    -9.6459  -8.0774  -8.0773  -7.5208  -6.5561  -6.5560  -4.1826  -3.7995
    -3.2634  -2.8084  -2.8081  -2.2408  -2.2407  -1.7274  -0.8762

     the Fermi energy is    -2.6610 ev

!    total energy              =     -31.67664974 Ry
     Harris-Foulkes estimate   =     -31.67665008 Ry
     estimated scf accuracy    <       0.00000048 Ry

     The total energy is the sum of the following terms:

     one-electron contribution =    -103.79327478 Ry
     hartree contribution      =      53.99063882 Ry
     xc contribution           =     -13.76141550 Ry
     ewald contribution        =      31.90178579 Ry
     smearing contrib. (-TS)   =      -0.01438408 Ry

     convergence has been achieved in  11 iterations

     Forces acting on atoms (cartesian axes, Ry/au):

     atom    1 type  1   force =     0.00001973    0.00273552    0.00000000
     atom    2 type  1   force =     0.00932056    0.00539772    0.00000000
     atom    3 type  1   force =    -0.00933963    0.00535588    0.00000000
     atom    4 type  1   force =     0.00238416   -0.00134239    0.00000000
     atom    5 type  1   force =     0.00001469   -0.00001596    0.00000000
     atom    6 type  1   force =    -0.00234892   -0.00135345    0.00000000
     atom    7 type  1   force =    -0.00005059   -0.01077733    0.00000000

     Total force =     0.019246     Total SCF correction =     0.000505


     Computing stress (Cartesian axis) and pressure

          total   stress  (Ry/bohr**3)                   (kbar)     P=   -1.44
  -0.00001473   0.00000001   0.00000000         -2.17      0.00      0.00
   0.00000001  -0.00001473   0.00000000          0.00     -2.17      0.00
   0.00000000   0.00000000   0.00000004          0.00      0.00      0.01


     BFGS Geometry Optimization

     number of scf cycles    =   1
     number of bfgs steps    =   0

     enthalpy new            =     -31.6766497443 Ry

     new trust radius        =       0.0107774518 bohr
     new conv_thr            =       0.0000010000 Ry

     new unit-cell volume =   9275.74104 a.u.^3 (  1374.52299 Ang^3 )
     density =      0.25355 g/cm^3

CELL_PARAMETERS (alat= 16.84048341)
   0.999631671   0.000000373   0.000000000
  -0.499815512   0.865706229   0.000000000
   0.000000000   0.000000000   2.244265901

ATOMIC_POSITIONS (angstrom)
Al       0.000011984   2.573087339   0.000000000
Al       2.232037020   1.288675771   0.000000000
Al       6.676345699   1.288673490   0.000000000
Al      -2.225811051   6.428371113   0.000000000
Al       0.000041779   5.143252944   0.000000000
Al       2.225864823   6.428385114   0.000000000
Al       4.454186832   5.137580221   0.000000000



     Writing output data file 3al_planar_2x2_vcr.save/
     NEW-OLD atomic charge density approx. for the potential

     negative rho (up, down):  1.026E-07 0.000E+00
     extrapolated charge   20.98453, renormalised to   21.00000

     total cpu time spent up to now is       37.4 secs

     Self-consistent Calculation

     iteration #  1     ecut=    80.00 Ry     beta= 0.40
     Davidson diagonalization with overlap
     ethr =  1.00E-06,  avg # of iterations =  4.0

     negative rho (up, down):  5.098E-08 0.000E+00

     total cpu time spent up to now is       38.7 secs

     total energy              =     -31.67707112 Ry
     Harris-Foulkes estimate   =     -31.74687183 Ry
     estimated scf accuracy    <       0.00005640 Ry

     iteration #  2     ecut=    80.00 Ry     beta= 0.40
     Davidson diagonalization with overlap
     ethr =  2.69E-07,  avg # of iterations =  5.0

     negative rho (up, down):  3.964E-08 0.000E+00

     total cpu time spent up to now is       40.3 secs

     total energy              =     -31.67710417 Ry
     Harris-Foulkes estimate   =     -31.67713211 Ry
     estimated scf accuracy    <       0.00011923 Ry

     iteration #  3     ecut=    80.00 Ry     beta= 0.40
     Davidson diagonalization with overlap
     ethr =  2.69E-07,  avg # of iterations =  2.0

     negative rho (up, down):  3.731E-08 0.000E+00

     total cpu time spent up to now is       41.3 secs

     total energy              =     -31.67711265 Ry
     Harris-Foulkes estimate   =     -31.67711310 Ry
     estimated scf accuracy    <       0.00001302 Ry

     iteration #  4     ecut=    80.00 Ry     beta= 0.40
     Davidson diagonalization with overlap
     ethr =  6.20E-08,  avg # of iterations =  4.0

     negative rho (up, down):  2.150E-08 0.000E+00

     total cpu time spent up to now is       42.5 secs

     total energy              =     -31.67711138 Ry
     Harris-Foulkes estimate   =     -31.67711290 Ry
     estimated scf accuracy    <       0.00001085 Ry

     iteration #  5     ecut=    80.00 Ry     beta= 0.40
     Davidson diagonalization with overlap
     ethr =  5.17E-08,  avg # of iterations =  1.0

     total cpu time spent up to now is       43.5 secs

     total energy              =     -31.67711057 Ry
     Harris-Foulkes estimate   =     -31.67711181 Ry
     estimated scf accuracy    <       0.00000542 Ry

     iteration #  6     ecut=    80.00 Ry     beta= 0.40
     Davidson diagonalization with overlap
     ethr =  2.58E-08,  avg # of iterations =  3.0

     total cpu time spent up to now is       44.5 secs

     End of self-consistent calculation

          k = 0.0000 0.0000 0.0000 (111965 PWs)   bands (ev):

    -9.6432  -8.0712  -8.0711  -7.5169  -6.5569  -6.5568  -4.1954  -3.7974
    -3.2576  -2.8017  -2.8015  -2.2361  -2.2360  -1.7242  -0.8772

     the Fermi energy is    -2.6548 ev

!    total energy              =     -31.67711074 Ry
     Harris-Foulkes estimate   =     -31.67711123 Ry
     estimated scf accuracy    <       0.00000077 Ry

     The total energy is the sum of the following terms:

     one-electron contribution =    -103.82917166 Ry
     hartree contribution      =      54.00763715 Ry
     xc contribution           =     -13.75959000 Ry
     ewald contribution        =      31.91862238 Ry
     smearing contrib. (-TS)   =      -0.01460860 Ry

     convergence has been achieved in   6 iterations

     Forces acting on atoms (cartesian axes, Ry/au):

     atom    1 type  1   force =     0.00002041    0.00176774    0.00000000
     atom    2 type  1   force =     0.00888742    0.00519242    0.00000000
     atom    3 type  1   force =    -0.00891260    0.00514200    0.00000000
     atom    4 type  1   force =     0.00159519   -0.00090192    0.00000000
     atom    5 type  1   force =    -0.00001303    0.00001583    0.00000000
     atom    6 type  1   force =    -0.00155630   -0.00088363    0.00000000
     atom    7 type  1   force =    -0.00002109   -0.01033245    0.00000000

     Total force =     0.018118     Total SCF correction =     0.000666


     Computing stress (Cartesian axis) and pressure

          total   stress  (Ry/bohr**3)                   (kbar)     P=   -1.49
  -0.00001520  -0.00000001   0.00000000         -2.24     -0.00      0.00
  -0.00000001  -0.00001514   0.00000000         -0.00     -2.23      0.00
   0.00000000   0.00000000  -0.00000009          0.00      0.00     -0.01


     number of scf cycles    =   2
     number of bfgs steps    =   1

     enthalpy old            =     -31.6766497443 Ry
     enthalpy new            =     -31.6771107399 Ry

     CASE: enthalpy_new < enthalpy_old


     WARNING: bfgs curvature condition failed, Theta= 0.835
     new trust radius        =       0.0161602232 bohr
     new conv_thr            =       0.0000004610 Ry

     new unit-cell volume =   9265.11075 a.u.^3 (  1372.94774 Ang^3 )
     density =      0.25384 g/cm^3

CELL_PARAMETERS (alat= 16.84048341)
   0.999058167   0.000000533   0.000000000
  -0.499528622   0.865210406   0.000000000
   0.000000000   0.000000000   2.244265901

ATOMIC_POSITIONS (angstrom)
Al       0.000028656   2.573429524   0.000000000
Al       2.238128068   1.292225942   0.000000000
Al       6.665126221   1.292186925   0.000000000
Al      -2.222928051   6.423784345   0.000000000
Al       0.000043015   5.140307906   0.000000000
Al       2.223013911   6.423802231   0.000000000
Al       4.451603439   5.126092246   0.000000000



     Writing output data file 3al_planar_2x2_vcr.save/
     NEW-OLD atomic charge density approx. for the potential

     negative rho (up, down):  1.640E-07 0.000E+00
     extrapolated charge   20.97593, renormalised to   21.00000

     total cpu time spent up to now is       59.6 secs

     Self-consistent Calculation

     iteration #  1     ecut=    80.00 Ry     beta= 0.40
     Davidson diagonalization with overlap
     ethr =  1.00E-06,  avg # of iterations =  4.0

     negative rho (up, down):  8.285E-08 0.000E+00

     total cpu time spent up to now is       61.3 secs

     total energy              =     -31.67764501 Ry
     Harris-Foulkes estimate   =     -31.78643376 Ry
     estimated scf accuracy    <       0.00019427 Ry

     iteration #  2     ecut=    80.00 Ry     beta= 0.40
     Davidson diagonalization with overlap
     ethr =  9.25E-07,  avg # of iterations =  3.0

     negative rho (up, down):  6.429E-08 0.000E+00

     total cpu time spent up to now is       62.7 secs

     total energy              =     -31.67774025 Ry
     Harris-Foulkes estimate   =     -31.67783045 Ry
     estimated scf accuracy    <       0.00036931 Ry

     iteration #  3     ecut=    80.00 Ry     beta= 0.40
     Davidson diagonalization with overlap
     ethr =  9.25E-07,  avg # of iterations =  2.0

     negative rho (up, down):  5.466E-08 0.000E+00

     total cpu time spent up to now is       63.9 secs

     total energy              =     -31.67776878 Ry
     Harris-Foulkes estimate   =     -31.67777118 Ry
     estimated scf accuracy    <       0.00002909 Ry

     iteration #  4     ecut=    80.00 Ry     beta= 0.40
     Davidson diagonalization with overlap
     ethr =  1.39E-07,  avg # of iterations =  2.0

     total cpu time spent up to now is       65.0 secs

     total energy              =     -31.67776332 Ry
     Harris-Foulkes estimate   =     -31.67776960 Ry
     estimated scf accuracy    <       0.00001915 Ry

     iteration #  5     ecut=    80.00 Ry     beta= 0.40
     Davidson diagonalization with overlap
     ethr =  9.12E-08,  avg # of iterations =  3.0

     total cpu time spent up to now is       66.4 secs

     total energy              =     -31.67776774 Ry
     Harris-Foulkes estimate   =     -31.67776783 Ry
     estimated scf accuracy    <       0.00000244 Ry

     iteration #  6     ecut=    80.00 Ry     beta= 0.40
     Davidson diagonalization with overlap
     ethr =  1.16E-08,  avg # of iterations =  4.0

     total cpu time spent up to now is       67.6 secs

     total energy              =     -31.67776761 Ry
     Harris-Foulkes estimate   =     -31.67776793 Ry
     estimated scf accuracy    <       0.00000230 Ry

     iteration #  7     ecut=    80.00 Ry     beta= 0.40
     Davidson diagonalization with overlap
     ethr =  1.09E-08,  avg # of iterations =  1.0

     total cpu time spent up to now is       68.6 secs

     total energy              =     -31.67776698 Ry
     Harris-Foulkes estimate   =     -31.67776766 Ry
     estimated scf accuracy    <       0.00000160 Ry

     iteration #  8     ecut=    80.00 Ry     beta= 0.40
     Davidson diagonalization with overlap
     ethr =  7.64E-09,  avg # of iterations =  3.0

     total cpu time spent up to now is       70.0 secs

     End of self-consistent calculation

          k = 0.0000 0.0000 0.0000 (111965 PWs)   bands (ev):

    -9.6414  -8.0635  -8.0634  -7.5131  -6.5598  -6.5598  -4.2163  -3.7959
    -3.2505  -2.7936  -2.7936  -2.2302  -2.2301  -1.7215  -0.8800

     the Fermi energy is    -2.6473 ev

!    total energy              =     -31.67776716 Ry
     Harris-Foulkes estimate   =     -31.67776740 Ry
     estimated scf accuracy    <       0.00000029 Ry

     The total energy is the sum of the following terms:

     one-electron contribution =    -103.89257616 Ry
     hartree contribution      =      54.04114999 Ry
     xc contribution           =     -13.75791685 Ry
     ewald contribution        =      31.94645314 Ry
     smearing contrib. (-TS)   =      -0.01487727 Ry

     convergence has been achieved in   8 iterations

     Forces acting on atoms (cartesian axes, Ry/au):

     atom    1 type  1   force =     0.00001188    0.00070831    0.00000000
     atom    2 type  1   force =     0.00823202    0.00474598    0.00000000
     atom    3 type  1   force =    -0.00824302    0.00473730    0.00000000
     atom    4 type  1   force =     0.00061042   -0.00034340    0.00000000
     atom    5 type  1   force =     0.00000640    0.00000948    0.00000000
     atom    6 type  1   force =    -0.00060047   -0.00035603    0.00000000
     atom    7 type  1   force =    -0.00001723   -0.00950165    0.00000000

     Total force =     0.016506     Total SCF correction =     0.000459


     Computing stress (Cartesian axis) and pressure

          total   stress  (Ry/bohr**3)                   (kbar)     P=   -1.55
  -0.00001580  -0.00000000   0.00000000         -2.32     -0.00      0.00
  -0.00000000  -0.00001579   0.00000000         -0.00     -2.32      0.00
   0.00000000   0.00000000   0.00000006          0.00      0.00      0.01


     number of scf cycles    =   3
     number of bfgs steps    =   2

     enthalpy old            =     -31.6771107399 Ry
     enthalpy new            =     -31.6777671559 Ry

     CASE: enthalpy_new < enthalpy_old

     new trust radius        =       0.0242264537 bohr
     new conv_thr            =       0.0000006564 Ry

     new unit-cell volume =   9247.97182 a.u.^3 (  1370.40802 Ang^3 )
     density =      0.25431 g/cm^3

CELL_PARAMETERS (alat= 16.84048341)
   0.998133702   0.000000917   0.000000000
  -0.499066057   0.864409587   0.000000000
   0.000000000   0.000000000   2.244265901

ATOMIC_POSITIONS (angstrom)
Al       0.000048518   2.573101943   0.000000000
Al       2.247150116   1.297431055   0.000000000
Al       6.647849651   1.297367745   0.000000000
Al      -2.219092737   6.416840136   0.000000000
Al       0.000061598   5.135545798   0.000000000
Al       2.219208002   6.416839728   0.000000000
Al       4.447443108   5.108546375   0.000000000



     Writing output data file 3al_planar_2x2_vcr.save/
     NEW-OLD atomic charge density approx. for the potential

     negative rho (up, down):  2.572E-07 0.000E+00
     extrapolated charge   20.96111, renormalised to   21.00000

     total cpu time spent up to now is       85.3 secs

     Self-consistent Calculation

     iteration #  1     ecut=    80.00 Ry     beta= 0.40
     Davidson diagonalization with overlap
     ethr =  1.00E-06,  avg # of iterations =  4.0

     negative rho (up, down):  1.323E-07 0.000E+00

     total cpu time spent up to now is       87.1 secs

     total energy              =     -31.67849938 Ry
     Harris-Foulkes estimate   =     -31.85437011 Ry
     estimated scf accuracy    <       0.00023827 Ry

     iteration #  2     ecut=    80.00 Ry     beta= 0.40
     Davidson diagonalization with overlap
     ethr =  1.13E-06,  avg # of iterations =  5.0

     negative rho (up, down):  1.051E-07 0.000E+00

     total cpu time spent up to now is       88.5 secs

     total energy              =     -31.67866958 Ry
     Harris-Foulkes estimate   =     -31.67879614 Ry
     estimated scf accuracy    <       0.00056836 Ry

     iteration #  3     ecut=    80.00 Ry     beta= 0.40
     Davidson diagonalization with overlap
     ethr =  1.13E-06,  avg # of iterations =  2.0

     negative rho (up, down):  8.769E-08 0.000E+00

     total cpu time spent up to now is       89.7 secs

     total energy              =     -31.67870132 Ry
     Harris-Foulkes estimate   =     -31.67870861 Ry
     estimated scf accuracy    <       0.00007739 Ry

     iteration #  4     ecut=    80.00 Ry     beta= 0.40
     Davidson diagonalization with overlap
     ethr =  3.69E-07,  avg # of iterations =  3.0

     negative rho (up, down):  1.568E-08 0.000E+00

     total cpu time spent up to now is       90.8 secs

     total energy              =     -31.67868567 Ry
     Harris-Foulkes estimate   =     -31.67870301 Ry
     estimated scf accuracy    <       0.00004962 Ry

     iteration #  5     ecut=    80.00 Ry     beta= 0.40
     Davidson diagonalization with overlap
     ethr =  2.36E-07,  avg # of iterations =  3.0

     total cpu time spent up to now is       92.2 secs

     total energy              =     -31.67869737 Ry
     Harris-Foulkes estimate   =     -31.67869777 Ry
     estimated scf accuracy    <       0.00000709 Ry

     iteration #  6     ecut=    80.00 Ry     beta= 0.40
     Davidson diagonalization with overlap
     ethr =  3.38E-08,  avg # of iterations =  5.0

     total cpu time spent up to now is       93.5 secs

     total energy              =     -31.67869688 Ry
     Harris-Foulkes estimate   =     -31.67869804 Ry
     estimated scf accuracy    <       0.00000602 Ry

     iteration #  7     ecut=    80.00 Ry     beta= 0.40
     Davidson diagonalization with overlap
     ethr =  2.87E-08,  avg # of iterations =  1.0

     total cpu time spent up to now is       94.5 secs

     total energy              =     -31.67869563 Ry
     Harris-Foulkes estimate   =     -31.67869705 Ry
     estimated scf accuracy    <       0.00000336 Ry

     iteration #  8     ecut=    80.00 Ry     beta= 0.40
     Davidson diagonalization with overlap
     ethr =  1.60E-08,  avg # of iterations =  3.0

     total cpu time spent up to now is       95.9 secs

     End of self-consistent calculation

          k = 0.0000 0.0000 0.0000 (111965 PWs)   bands (ev):

    -9.6387  -8.0524  -8.0522  -7.5066  -6.5633  -6.5632  -4.2473  -3.7935
    -3.2394  -2.7803  -2.7802  -2.2215  -2.2213  -1.7164  -0.8831

     the Fermi energy is    -2.6352 ev

!    total energy              =     -31.67869612 Ry
     Harris-Foulkes estimate   =     -31.67869656 Ry
     estimated scf accuracy    <       0.00000054 Ry

     The total energy is the sum of the following terms:

     one-electron contribution =    -103.99932802 Ry
     hartree contribution      =      54.09544015 Ry
     xc contribution           =     -13.75517769 Ry
     ewald contribution        =      31.99573154 Ry
     smearing contrib. (-TS)   =      -0.01536211 Ry

     convergence has been achieved in   8 iterations

     Forces acting on atoms (cartesian axes, Ry/au):

     atom    1 type  1   force =     0.00001269   -0.00090028    0.00000000
     atom    2 type  1   force =     0.00732926    0.00422779    0.00000000
     atom    3 type  1   force =    -0.00734350    0.00423699    0.00000000
     atom    4 type  1   force =    -0.00077298    0.00045707    0.00000000
     atom    5 type  1   force =     0.00000140    0.00000721    0.00000000
     atom    6 type  1   force =     0.00077168    0.00044505    0.00000000
     atom    7 type  1   force =     0.00000144   -0.00847383    0.00000000

     Total force =     0.014754     Total SCF correction =     0.000613


     Computing stress (Cartesian axis) and pressure

          total   stress  (Ry/bohr**3)                   (kbar)     P=   -1.63
  -0.00001665  -0.00000001   0.00000000         -2.45     -0.00      0.00
  -0.00000001  -0.00001662   0.00000000         -0.00     -2.45      0.00
   0.00000000   0.00000000   0.00000009          0.00      0.00      0.01


     number of scf cycles    =   4
     number of bfgs steps    =   3

     enthalpy old            =     -31.6777671559 Ry
     enthalpy new            =     -31.6786961230 Ry

     CASE: enthalpy_new < enthalpy_old

     new trust radius        =       0.0363060419 bohr
     new conv_thr            =       0.0000008474 Ry

     new unit-cell volume =   9220.78312 a.u.^3 (  1366.37907 Ang^3 )
     density =      0.25506 g/cm^3

CELL_PARAMETERS (alat= 16.84048341)
   0.996665074   0.000001325   0.000000000
  -0.498331389   0.863138050   0.000000000
   0.000000000   0.000000000   2.244265901

ATOMIC_POSITIONS (angstrom)
Al       0.000080076   2.571360441   0.000000000
Al       2.260449000   1.305109053   0.000000000
Al       6.621434259   1.305018680   0.000000000
Al      -2.214049860   6.406420242   0.000000000
Al       0.000085383   5.127981490   0.000000000
Al       2.214201369   6.406391957   0.000000000
Al       4.440847548   5.081853997   0.000000000



     Writing output data file 3al_planar_2x2_vcr.save/
     NEW-OLD atomic charge density approx. for the potential

     negative rho (up, down):  4.179E-07 0.000E+00
     extrapolated charge   20.93813, renormalised to   21.00000

     total cpu time spent up to now is      111.2 secs

     Self-consistent Calculation

     iteration #  1     ecut=    80.00 Ry     beta= 0.40
     Davidson diagonalization with overlap
     ethr =  1.00E-06,  avg # of iterations =  5.0

     negative rho (up, down):  2.202E-07 0.000E+00

     total cpu time spent up to now is      112.8 secs

     total energy              =     -31.67952724 Ry
     Harris-Foulkes estimate   =     -31.95994867 Ry
     estimated scf accuracy    <       0.00053344 Ry

     iteration #  2     ecut=    80.00 Ry     beta= 0.40
     Davidson diagonalization with overlap
     ethr =  2.54E-06,  avg # of iterations =  5.0

     negative rho (up, down):  1.770E-07 0.000E+00

     total cpu time spent up to now is      114.2 secs

     total energy              =     -31.67992610 Ry
     Harris-Foulkes estimate   =     -31.68022427 Ry
     estimated scf accuracy    <       0.00136700 Ry

     iteration #  3     ecut=    80.00 Ry     beta= 0.40
     Davidson diagonalization with overlap
     ethr =  2.54E-06,  avg # of iterations =  2.0

     negative rho (up, down):  1.464E-07 0.000E+00

     total cpu time spent up to now is      115.3 secs

     total energy              =     -31.67999610 Ry
     Harris-Foulkes estimate   =     -31.68001547 Ry
     estimated scf accuracy    <       0.00019659 Ry

     iteration #  4     ecut=    80.00 Ry     beta= 0.40
     Davidson diagonalization with overlap
     ethr =  9.36E-07,  avg # of iterations =  1.0

     negative rho (up, down):  1.532E-08 0.000E+00

     total cpu time spent up to now is      116.2 secs

     total energy              =     -31.67995327 Ry
     Harris-Foulkes estimate   =     -31.68000019 Ry
     estimated scf accuracy    <       0.00012243 Ry

     iteration #  5     ecut=    80.00 Ry     beta= 0.40
     Davidson diagonalization with overlap
     ethr =  5.83E-07,  avg # of iterations =  5.0

     negative rho (up, down):  1.208E-08 0.000E+00

     total cpu time spent up to now is      117.4 secs

     total energy              =     -31.67999113 Ry
     Harris-Foulkes estimate   =     -31.67999239 Ry
     estimated scf accuracy    <       0.00002609 Ry

     iteration #  6     ecut=    80.00 Ry     beta= 0.40
     Davidson diagonalization with overlap
     ethr =  1.24E-07,  avg # of iterations =  1.0

     negative rho (up, down):  1.218E-08 0.000E+00

     total cpu time spent up to now is      118.3 secs

     total energy              =     -31.67999196 Ry
     Harris-Foulkes estimate   =     -31.67999172 Ry
     estimated scf accuracy    <       0.00002365 Ry

     iteration #  7     ecut=    80.00 Ry     beta= 0.40
     Davidson diagonalization with overlap
     ethr =  1.13E-07,  avg # of iterations =  1.0

     total cpu time spent up to now is      119.2 secs

     total energy              =     -31.67998063 Ry
     Harris-Foulkes estimate   =     -31.67999210 Ry
     estimated scf accuracy    <       0.00002408 Ry

     iteration #  8     ecut=    80.00 Ry     beta= 0.40
     Davidson diagonalization with overlap
     ethr =  1.13E-07,  avg # of iterations =  2.0

     total cpu time spent up to now is      120.3 secs

     total energy              =     -31.67998548 Ry
     Harris-Foulkes estimate   =     -31.67998538 Ry
     estimated scf accuracy    <       0.00000115 Ry

     iteration #  9     ecut=    80.00 Ry     beta= 0.40
     Davidson diagonalization with overlap
     ethr =  5.50E-09,  avg # of iterations =  5.0

     total cpu time spent up to now is      121.3 secs

     total energy              =     -31.67998543 Ry
     Harris-Foulkes estimate   =     -31.67998565 Ry
     estimated scf accuracy    <       0.00000135 Ry

     iteration # 10     ecut=    80.00 Ry     beta= 0.40
     Davidson diagonalization with overlap
     ethr =  5.50E-09,  avg # of iterations =  1.0

     total cpu time spent up to now is      122.2 secs

     End of self-consistent calculation

          k = 0.0000 0.0000 0.0000 (111965 PWs)   bands (ev):

    -9.6354  -8.0365  -8.0362  -7.4969  -6.5680  -6.5677  -4.2939  -3.7905
    -3.2224  -2.7596  -2.7595  -2.2086  -2.2084  -1.7090  -0.8867

     the Fermi energy is    -2.6168 ev

!    total energy              =     -31.67998511 Ry
     Harris-Foulkes estimate   =     -31.67998547 Ry
     estimated scf accuracy    <       0.00000051 Ry

     The total energy is the sum of the following terms:

     one-electron contribution =    -104.17914512 Ry
     hartree contribution      =      54.18680525 Ry
     xc contribution           =     -13.75150013 Ry
     ewald contribution        =      32.07996774 Ry
     smearing contrib. (-TS)   =      -0.01611284 Ry

     convergence has been achieved in  10 iterations

     Forces acting on atoms (cartesian axes, Ry/au):

     atom    1 type  1   force =     0.00000972   -0.00299317    0.00000000
     atom    2 type  1   force =     0.00610506    0.00352694    0.00000000
     atom    3 type  1   force =    -0.00611543    0.00354536    0.00000000
     atom    4 type  1   force =    -0.00258155    0.00149210    0.00000000
     atom    5 type  1   force =    -0.00000951    0.00000955    0.00000000
     atom    6 type  1   force =     0.00257048    0.00148589    0.00000000
     atom    7 type  1   force =     0.00002123   -0.00706668    0.00000000

     Total force =     0.013277     Total SCF correction =     0.000450


     Computing stress (Cartesian axis) and pressure

          total   stress  (Ry/bohr**3)                   (kbar)     P=   -1.74
  -0.00001782  -0.00000002   0.00000000         -2.62     -0.00      0.00
  -0.00000002  -0.00001778   0.00000000         -0.00     -2.62      0.00
   0.00000000   0.00000000   0.00000013          0.00      0.00      0.02


     number of scf cycles    =   5
     number of bfgs steps    =   4

     enthalpy old            =     -31.6786961230 Ry
     enthalpy new            =     -31.6799851080 Ry

     CASE: enthalpy_new < enthalpy_old

     new trust radius        =       0.0543789222 bohr
     new conv_thr            =       0.0000007067 Ry

     new unit-cell volume =   9177.93552 a.u.^3 (  1360.02971 Ang^3 )
     density =      0.25625 g/cm^3

CELL_PARAMETERS (alat= 16.84048341)
   0.994345919   0.000001719   0.000000000
  -0.497171470   0.861130756   0.000000000
   0.000000000   0.000000000   2.244265901

ATOMIC_POSITIONS (angstrom)
Al       0.000126530   2.567069858   0.000000000
Al       2.280035046   1.316425669   0.000000000
Al       6.581138235   1.316295799   0.000000000
Al      -2.207417642   6.390730533   0.000000000
Al       0.000112077   5.116040737   0.000000000
Al       2.207617119   6.390663953   0.000000000
Al       4.430446045   5.041330228   0.000000000



     Writing output data file 3al_planar_2x2_vcr.save/
     NEW-OLD atomic charge density approx. for the potential

     negative rho (up, down):  8.834E-07 0.000E+00
     extrapolated charge   20.90204, renormalised to   21.00000

     total cpu time spent up to now is      136.9 secs

     Self-consistent Calculation

     iteration #  1     ecut=    80.00 Ry     beta= 0.40
     Davidson diagonalization with overlap
     ethr =  1.00E-06,  avg # of iterations =  5.0

     negative rho (up, down):  4.787E-07 0.000E+00

     total cpu time spent up to now is      138.6 secs

     total energy              =     -31.68065985 Ry
     Harris-Foulkes estimate   =     -32.12619704 Ry
     estimated scf accuracy    <       0.00119648 Ry

     iteration #  2     ecut=    80.00 Ry     beta= 0.40
     Davidson diagonalization with overlap
     ethr =  5.70E-06,  avg # of iterations =  5.0

     negative rho (up, down):  3.900E-07 0.000E+00

     total cpu time spent up to now is      139.9 secs

     total energy              =     -31.68159387 Ry
     Harris-Foulkes estimate   =     -31.68231776 Ry
     estimated scf accuracy    <       0.00342197 Ry

     iteration #  3     ecut=    80.00 Ry     beta= 0.40
     Davidson diagonalization with overlap
     ethr =  5.70E-06,  avg # of iterations =  2.0

     negative rho (up, down):  3.240E-07 0.000E+00

     total cpu time spent up to now is      140.9 secs

     total energy              =     -31.68175338 Ry
     Harris-Foulkes estimate   =     -31.68180199 Ry
     estimated scf accuracy    <       0.00050853 Ry

     iteration #  4     ecut=    80.00 Ry     beta= 0.40
     Davidson diagonalization with overlap
     ethr =  2.42E-06,  avg # of iterations =  1.0

     negative rho (up, down):  4.761E-08 0.000E+00

     total cpu time spent up to now is      141.8 secs

     total energy              =     -31.68165060 Ry
     Harris-Foulkes estimate   =     -31.68176345 Ry
     estimated scf accuracy    <       0.00031266 Ry

     iteration #  5     ecut=    80.00 Ry     beta= 0.40
     Davidson diagonalization with overlap
     ethr =  1.49E-06,  avg # of iterations =  5.0

     negative rho (up, down):  4.199E-08 0.000E+00

     total cpu time spent up to now is      143.0 secs

     total energy              =     -31.68173423 Ry
     Harris-Foulkes estimate   =     -31.68173733 Ry
     estimated scf accuracy    <       0.00004250 Ry

     iteration #  6     ecut=    80.00 Ry     beta= 0.40
     Davidson diagonalization with overlap
     ethr =  2.02E-07,  avg # of iterations =  2.0

     negative rho (up, down):  3.332E-08 0.000E+00

     total cpu time spent up to now is      144.1 secs

     total energy              =     -31.68172942 Ry
     Harris-Foulkes estimate   =     -31.68173662 Ry
     estimated scf accuracy    <       0.00003639 Ry

     iteration #  7     ecut=    80.00 Ry     beta= 0.40
     Davidson diagonalization with overlap
     ethr =  1.73E-07,  avg # of iterations =  1.0

     total cpu time spent up to now is      145.3 secs

     total energy              =     -31.68172471 Ry
     Harris-Foulkes estimate   =     -31.68173056 Ry
     estimated scf accuracy    <       0.00001804 Ry

     iteration #  8     ecut=    80.00 Ry     beta= 0.40
     Davidson diagonalization with overlap
     ethr =  8.59E-08,  avg # of iterations =  3.0

     total cpu time spent up to now is      146.4 secs

     total energy              =     -31.68172791 Ry
     Harris-Foulkes estimate   =     -31.68172828 Ry
     estimated scf accuracy    <       0.00000177 Ry

     iteration #  9     ecut=    80.00 Ry     beta= 0.40
     Davidson diagonalization with overlap
     ethr =  8.44E-09,  avg # of iterations =  5.0

     total cpu time spent up to now is      148.1 secs

     total energy              =     -31.68172815 Ry
     Harris-Foulkes estimate   =     -31.68172819 Ry
     estimated scf accuracy    <       0.00000087 Ry

     iteration # 10     ecut=    80.00 Ry     beta= 0.40
     Davidson diagonalization with overlap
     ethr =  4.13E-09,  avg # of iterations =  2.0

     total cpu time spent up to now is      149.1 secs

     total energy              =     -31.68172802 Ry
     Harris-Foulkes estimate   =     -31.68172824 Ry
     estimated scf accuracy    <       0.00000086 Ry

     iteration # 11     ecut=    80.00 Ry     beta= 0.40
     Davidson diagonalization with overlap
     ethr =  4.10E-09,  avg # of iterations =  1.0

     total cpu time spent up to now is      149.9 secs

     End of self-consistent calculation

          k = 0.0000 0.0000 0.0000 (111965 PWs)   bands (ev):

    -9.6315  -8.0134  -8.0129  -7.4825  -6.5743  -6.5739  -4.3665  -3.7868
    -3.1959  -2.7273  -2.7271  -2.1896  -2.1892  -1.6983  -0.8912

     the Fermi energy is    -2.5886 ev

!    total energy              =     -31.68172787 Ry
     Harris-Foulkes estimate   =     -31.68172809 Ry
     estimated scf accuracy    <       0.00000024 Ry

     The total energy is the sum of the following terms:

     one-electron contribution =    -104.47733120 Ry
     hartree contribution      =      54.33663155 Ry
     xc contribution           =     -13.74616075 Ry
     ewald contribution        =      32.22241324 Ry
     smearing contrib. (-TS)   =      -0.01728071 Ry

     convergence has been achieved in  11 iterations

     Forces acting on atoms (cartesian axes, Ry/au):

     atom    1 type  1   force =    -0.00001137   -0.00579515    0.00000000
     atom    2 type  1   force =     0.00438340    0.00253286    0.00000000
     atom    3 type  1   force =    -0.00437475    0.00255531    0.00000000
     atom    4 type  1   force =    -0.00501409    0.00287803    0.00000000
     atom    5 type  1   force =    -0.00000230    0.00001209    0.00000000
     atom    6 type  1   force =     0.00497955    0.00288530    0.00000000
     atom    7 type  1   force =     0.00003956   -0.00506844    0.00000000

     Total force =     0.013309     Total SCF correction =     0.000325


     Computing stress (Cartesian axis) and pressure

          total   stress  (Ry/bohr**3)                   (kbar)     P=   -1.91
  -0.00001950  -0.00000003   0.00000000         -2.87     -0.00      0.00
  -0.00000003  -0.00001944   0.00000000         -0.00     -2.86      0.00
   0.00000000   0.00000000   0.00000006          0.00      0.00      0.01


     number of scf cycles    =   6
     number of bfgs steps    =   5

     enthalpy old            =     -31.6799851080 Ry
     enthalpy new            =     -31.6817278714 Ry

     CASE: enthalpy_new < enthalpy_old

     new trust radius        =       0.0813785843 bohr
     new conv_thr            =       0.0000005795 Ry

     new unit-cell volume =   9110.56530 a.u.^3 (  1350.04647 Ang^3 )
     density =      0.25814 g/cm^3

CELL_PARAMETERS (alat= 16.84048341)
   0.990688065   0.000002043   0.000000000
  -0.495342263   0.857965659   0.000000000
   0.000000000   0.000000000   2.244265901

ATOMIC_POSITIONS (angstrom)
Al       0.000180630   2.558199845   0.000000000
Al       2.308782755   1.333042176   0.000000000
Al       6.519741671   1.332847838   0.000000000
Al      -2.198783308   6.367028026   0.000000000
Al       0.000157825   5.097213057   0.000000000
Al       2.199037397   6.366914127   0.000000000
Al       4.414052917   4.979897880   0.000000000



     Writing output data file 3al_planar_2x2_vcr.save/
     NEW-OLD atomic charge density approx. for the potential

     negative rho (up, down):  2.589E-06 0.000E+00
     extrapolated charge   20.84484, renormalised to   21.00000

     total cpu time spent up to now is      164.4 secs

     Self-consistent Calculation

     iteration #  1     ecut=    80.00 Ry     beta= 0.40
     Davidson diagonalization with overlap
     ethr =  1.00E-06,  avg # of iterations =  7.0

     negative rho (up, down):  1.452E-06 0.000E+00

     total cpu time spent up to now is      166.2 secs

     total energy              =     -31.68135548 Ry
     Harris-Foulkes estimate   =     -32.39123888 Ry
     estimated scf accuracy    <       0.00298477 Ry

     iteration #  2     ecut=    80.00 Ry     beta= 0.40
     Davidson diagonalization with overlap
     ethr =  1.42E-05,  avg # of iterations =  5.0

     negative rho (up, down):  1.196E-06 0.000E+00

     total cpu time spent up to now is      167.3 secs

     total energy              =     -31.68361807 Ry
     Harris-Foulkes estimate   =     -31.68549871 Ry
     estimated scf accuracy    <       0.00899317 Ry

     iteration #  3     ecut=    80.00 Ry     beta= 0.40
     Davidson diagonalization with overlap
     ethr =  1.42E-05,  avg # of iterations =  2.0

     negative rho (up, down):  9.855E-07 0.000E+00

     total cpu time spent up to now is      168.3 secs

     total energy              =     -31.68405909 Ry
     Harris-Foulkes estimate   =     -31.68418302 Ry
     estimated scf accuracy    <       0.00125215 Ry

     iteration #  4     ecut=    80.00 Ry     beta= 0.40
     Davidson diagonalization with overlap
     ethr =  5.96E-06,  avg # of iterations =  1.0

     negative rho (up, down):  1.754E-07 0.000E+00

     total cpu time spent up to now is      169.1 secs

     total energy              =     -31.68383188 Ry
     Harris-Foulkes estimate   =     -31.68408319 Ry
     estimated scf accuracy    <       0.00073539 Ry

     iteration #  5     ecut=    80.00 Ry     beta= 0.40
     Davidson diagonalization with overlap
     ethr =  3.50E-06,  avg # of iterations =  5.0

     negative rho (up, down):  1.588E-07 0.000E+00

     total cpu time spent up to now is      170.2 secs

     total energy              =     -31.68400641 Ry
     Harris-Foulkes estimate   =     -31.68401377 Ry
     estimated scf accuracy    <       0.00008498 Ry

     iteration #  6     ecut=    80.00 Ry     beta= 0.40
     Davidson diagonalization with overlap
     ethr =  4.05E-07,  avg # of iterations =  3.0

     negative rho (up, down):  1.382E-07 0.000E+00

     total cpu time spent up to now is      171.2 secs

     total energy              =     -31.68400346 Ry
     Harris-Foulkes estimate   =     -31.68401354 Ry
     estimated scf accuracy    <       0.00007046 Ry

     iteration #  7     ecut=    80.00 Ry     beta= 0.40
     Davidson diagonalization with overlap
     ethr =  3.36E-07,  avg # of iterations =  1.0

     total cpu time spent up to now is      172.1 secs

     total energy              =     -31.68398756 Ry
     Harris-Foulkes estimate   =     -31.68400464 Ry
     estimated scf accuracy    <       0.00004623 Ry

     iteration #  8     ecut=    80.00 Ry     beta= 0.40
     Davidson diagonalization with overlap
     ethr =  2.20E-07,  avg # of iterations =  3.0

     total cpu time spent up to now is      173.2 secs

     total energy              =     -31.68399626 Ry
     Harris-Foulkes estimate   =     -31.68399729 Ry
     estimated scf accuracy    <       0.00000469 Ry

     iteration #  9     ecut=    80.00 Ry     beta= 0.40
     Davidson diagonalization with overlap
     ethr =  2.23E-08,  avg # of iterations =  5.0

     total cpu time spent up to now is      174.3 secs

     total energy              =     -31.68399609 Ry
     Harris-Foulkes estimate   =     -31.68399675 Ry
     estimated scf accuracy    <       0.00000205 Ry

     iteration # 10     ecut=    80.00 Ry     beta= 0.40
     Davidson diagonalization with overlap
     ethr =  9.75E-09,  avg # of iterations =  2.0

     total cpu time spent up to now is      175.1 secs

     End of self-consistent calculation

          k = 0.0000 0.0000 0.0000 (111965 PWs)   bands (ev):

    -9.6304  -7.9815  -7.9807  -7.4655  -6.5854  -6.5847  -4.4811  -3.7842
    -3.1560  -2.6809  -2.6807  -2.1622  -2.1617  -1.6863  -0.8978

     the Fermi energy is    -2.5483 ev

!    total energy              =     -31.68399592 Ry
     Harris-Foulkes estimate   =     -31.68399631 Ry
     estimated scf accuracy    <       0.00000051 Ry

     The total energy is the sum of the following terms:

     one-electron contribution =    -104.97928037 Ry
     hartree contribution      =      54.59011388 Ry
     xc contribution           =     -13.73970109 Ry
     ewald contribution        =      32.46377601 Ry
     smearing contrib. (-TS)   =      -0.01890435 Ry

     convergence has been achieved in  10 iterations

     Forces acting on atoms (cartesian axes, Ry/au):

     atom    1 type  1   force =    -0.00000899   -0.00932836    0.00000000
     atom    2 type  1   force =     0.00203313    0.00117422    0.00000000
     atom    3 type  1   force =    -0.00200747    0.00118044    0.00000000
     atom    4 type  1   force =    -0.00805949    0.00464078    0.00000000
     atom    5 type  1   force =    -0.00002095    0.00001796    0.00000000
     atom    6 type  1   force =     0.00801901    0.00465663    0.00000000
     atom    7 type  1   force =     0.00004476   -0.00234167    0.00000000

     Total force =     0.016611     Total SCF correction =     0.000323


     Computing stress (Cartesian axis) and pressure

          total   stress  (Ry/bohr**3)                   (kbar)     P=   -2.13
  -0.00002187  -0.00000003   0.00000000         -3.22     -0.01      0.00
  -0.00000003  -0.00002178   0.00000000         -0.01     -3.20      0.00
   0.00000000   0.00000000   0.00000019          0.00      0.00      0.03


     number of scf cycles    =   7
     number of bfgs steps    =   6

     enthalpy old            =     -31.6817278714 Ry
     enthalpy new            =     -31.6839959232 Ry

     CASE: enthalpy_new < enthalpy_old

     new trust radius        =       0.1216192380 bohr
     new conv_thr            =       0.0000009328 Ry

     new unit-cell volume =   9004.73664 a.u.^3 (  1334.36428 Ang^3 )
     density =      0.26118 g/cm^3

CELL_PARAMETERS (alat= 16.84048341)
   0.984914264   0.000002277   0.000000000
  -0.492455160   0.852970550   0.000000000
   0.000000000   0.000000000   2.244265901

ATOMIC_POSITIONS (angstrom)
Al       0.000265540   2.541313491   0.000000000
Al       2.350708704   1.357284233   0.000000000
Al       6.426296508   1.356967350   0.000000000
Al      -2.187639025   6.331057024   0.000000000
Al       0.000210340   5.067503233   0.000000000
Al       2.187972899   6.330879974   0.000000000
Al       4.388179724   4.886923261   0.000000000



     Writing output data file 3al_planar_2x2_vcr.save/
     NEW-OLD atomic charge density approx. for the potential

     negative rho (up, down):  7.082E-06 0.000E+00
     extrapolated charge   20.75340, renormalised to   21.00000

     total cpu time spent up to now is      190.1 secs

     Self-consistent Calculation

     iteration #  1     ecut=    80.00 Ry     beta= 0.40
     Davidson diagonalization with overlap
     ethr =  1.00E-06,  avg # of iterations =  8.0

     negative rho (up, down):  4.121E-06 0.000E+00

     total cpu time spent up to now is      192.3 secs

     total energy              =     -31.68054077 Ry
     Harris-Foulkes estimate   =     -32.81938155 Ry
     estimated scf accuracy    <       0.00677985 Ry

     iteration #  2     ecut=    80.00 Ry     beta= 0.40
     Davidson diagonalization with overlap
     ethr =  3.23E-05,  avg # of iterations =  5.0

     negative rho (up, down):  3.428E-06 0.000E+00

     total cpu time spent up to now is      193.6 secs

     total energy              =     -31.68587958 Ry
     Harris-Foulkes estimate   =     -31.69048335 Ry
     estimated scf accuracy    <       0.02275812 Ry

     iteration #  3     ecut=    80.00 Ry     beta= 0.40
     Davidson diagonalization with overlap
     ethr =  3.23E-05,  avg # of iterations =  2.0

     negative rho (up, down):  2.805E-06 0.000E+00

     total cpu time spent up to now is      194.7 secs

     total energy              =     -31.68687311 Ry
     Harris-Foulkes estimate   =     -31.68721151 Ry
     estimated scf accuracy    <       0.00329944 Ry

     iteration #  4     ecut=    80.00 Ry     beta= 0.40
     Davidson diagonalization with overlap
     ethr =  1.57E-05,  avg # of iterations =  1.0

     negative rho (up, down):  6.276E-07 0.000E+00

     total cpu time spent up to now is      195.9 secs

     total energy              =     -31.68634373 Ry
     Harris-Foulkes estimate   =     -31.68694391 Ry
     estimated scf accuracy    <       0.00185422 Ry

     iteration #  5     ecut=    80.00 Ry     beta= 0.40
     Davidson diagonalization with overlap
     ethr =  8.83E-06,  avg # of iterations =  4.0

     negative rho (up, down):  5.857E-07 0.000E+00

     total cpu time spent up to now is      197.0 secs

     total energy              =     -31.68677656 Ry
     Harris-Foulkes estimate   =     -31.68678519 Ry
     estimated scf accuracy    <       0.00014762 Ry

     iteration #  6     ecut=    80.00 Ry     beta= 0.40
     Davidson diagonalization with overlap
     ethr =  7.03E-07,  avg # of iterations =  3.0

     negative rho (up, down):  5.944E-07 0.000E+00

     total cpu time spent up to now is      198.5 secs

     total energy              =     -31.68679554 Ry
     Harris-Foulkes estimate   =     -31.68680920 Ry
     estimated scf accuracy    <       0.00016208 Ry

     iteration #  7     ecut=    80.00 Ry     beta= 0.40
     Davidson diagonalization with overlap
     ethr =  7.03E-07,  avg # of iterations =  1.0

     negative rho (up, down):  2.473E-07 0.000E+00

     total cpu time spent up to now is      199.5 secs

     total energy              =     -31.68673455 Ry
     Harris-Foulkes estimate   =     -31.68679720 Ry
     estimated scf accuracy    <       0.00012528 Ry

     iteration #  8     ecut=    80.00 Ry     beta= 0.40
     Davidson diagonalization with overlap
     ethr =  5.97E-07,  avg # of iterations =  4.0

     negative rho (up, down):  2.980E-08 0.000E+00

     total cpu time spent up to now is      200.7 secs

     total energy              =     -31.68677362 Ry
     Harris-Foulkes estimate   =     -31.68677724 Ry
     estimated scf accuracy    <       0.00005761 Ry

     iteration #  9     ecut=    80.00 Ry     beta= 0.40
     Davidson diagonalization with overlap
     ethr =  2.74E-07,  avg # of iterations =  1.0

     total cpu time spent up to now is      202.1 secs

     total energy              =     -31.68676700 Ry
     Harris-Foulkes estimate   =     -31.68677577 Ry
     estimated scf accuracy    <       0.00003047 Ry

     iteration # 10     ecut=    80.00 Ry     beta= 0.40
     Davidson diagonalization with overlap
     ethr =  1.45E-07,  avg # of iterations =  3.0

     total cpu time spent up to now is      203.1 secs

     total energy              =     -31.68677026 Ry
     Harris-Foulkes estimate   =     -31.68677054 Ry
     estimated scf accuracy    <       0.00000225 Ry

     iteration # 11     ecut=    80.00 Ry     beta= 0.40
     Davidson diagonalization with overlap
     ethr =  1.07E-08,  avg # of iterations =  6.0

     negative rho (up, down):  1.493E-08 0.000E+00

     total cpu time spent up to now is      204.8 secs

     total energy              =     -31.68676970 Ry
     Harris-Foulkes estimate   =     -31.68677166 Ry
     estimated scf accuracy    <       0.00000283 Ry

     iteration # 12     ecut=    80.00 Ry     beta= 0.40
     Davidson diagonalization with overlap
     ethr =  1.07E-08,  avg # of iterations =  5.0

     total cpu time spent up to now is      206.1 secs

     total energy              =     -31.68677351 Ry
     Harris-Foulkes estimate   =     -31.68677238 Ry
     estimated scf accuracy    <       0.00000823 Ry

     iteration # 13     ecut=    80.00 Ry     beta= 0.40
     Davidson diagonalization with overlap
     ethr =  1.07E-08,  avg # of iterations =  1.0

     total cpu time spent up to now is      207.4 secs

     total energy              =     -31.68676985 Ry
     Harris-Foulkes estimate   =     -31.68677365 Ry
     estimated scf accuracy    <       0.00001168 Ry

     iteration # 14     ecut=    80.00 Ry     beta= 0.40
     Davidson diagonalization with overlap
     ethr =  1.07E-08,  avg # of iterations =  5.0

     total cpu time spent up to now is      208.8 secs

     End of self-consistent calculation

          k = 0.0000 0.0000 0.0000 (111965 PWs)   bands (ev):

    -9.6313  -7.9328  -7.9315  -7.4433  -6.5986  -6.5975  -4.6588  -3.7826
    -3.0881  -2.6092  -2.6088  -2.1198  -2.1189  -1.6722  -0.9036

     the Fermi energy is    -2.4862 ev

!    total energy              =     -31.68677096 Ry
     Harris-Foulkes estimate   =     -31.68677112 Ry
     estimated scf accuracy    <       0.00000022 Ry

     The total energy is the sum of the following terms:

     one-electron contribution =    -105.82443301 Ry
     hartree contribution      =      55.01333550 Ry
     xc contribution           =     -13.73106094 Ry
     ewald contribution        =      32.87684439 Ry
     smearing contrib. (-TS)   =      -0.02145690 Ry

     convergence has been achieved in  14 iterations

     Forces acting on atoms (cartesian axes, Ry/au):

     atom    1 type  1   force =    -0.00003202   -0.01385522    0.00000000
     atom    2 type  1   force =    -0.00127350   -0.00074583    0.00000000
     atom    3 type  1   force =     0.00130987   -0.00073021    0.00000000
     atom    4 type  1   force =    -0.01198220    0.00689335    0.00000000
     atom    5 type  1   force =    -0.00001617    0.00002110    0.00000000
     atom    6 type  1   force =     0.01194348    0.00693187    0.00000000
     atom    7 type  1   force =     0.00005054    0.00148494    0.00000000

     Total force =     0.024091     Total SCF correction =     0.000259


     Computing stress (Cartesian axis) and pressure

          total   stress  (Ry/bohr**3)                   (kbar)     P=   -2.47
  -0.00002525  -0.00000005   0.00000000         -3.71     -0.01      0.00
  -0.00000005  -0.00002514   0.00000000         -0.01     -3.70      0.00
   0.00000000   0.00000000  -0.00000002          0.00      0.00     -0.00


     number of scf cycles    =   8
     number of bfgs steps    =   7

     enthalpy old            =     -31.6839959232 Ry
     enthalpy new            =     -31.6867709642 Ry

     CASE: enthalpy_new < enthalpy_old

     new trust radius        =       0.1813667755 bohr
     new conv_thr            =       0.0000010000 Ry

     new unit-cell volume =   8837.61028 a.u.^3 (  1309.59871 Ang^3 )
     density =      0.26612 g/cm^3

CELL_PARAMETERS (alat= 16.84048341)
   0.975725781   0.000002096   0.000000000
  -0.487861075   0.845023049   0.000000000
   0.000000000   0.000000000   2.244265901

ATOMIC_POSITIONS (angstrom)
Al       0.000372593   2.509951201   0.000000000
Al       2.411074161   1.392195354   0.000000000
Al       6.283957186   1.391682125   0.000000000
Al      -2.173792111   6.276052433   0.000000000
Al       0.000290238   5.020234886   0.000000000
Al       2.174249508   6.275804978   0.000000000
Al       4.347010142   4.746307851   0.000000000



     Writing output data file 3al_planar_2x2_vcr.save/
     NEW-OLD atomic charge density approx. for the potential

     negative rho (up, down):  1.303E-05 0.000E+00
     extrapolated charge   20.60320, renormalised to   21.00000

     total cpu time spent up to now is      223.9 secs

     Self-consistent Calculation

     iteration #  1     ecut=    80.00 Ry     beta= 0.40
     Davidson diagonalization with overlap
     ethr =  1.00E-06,  avg # of iterations =  9.0

     negative rho (up, down):  7.798E-06 0.000E+00

     total cpu time spent up to now is      226.3 secs

     total energy              =     -31.67442836 Ry
     Harris-Foulkes estimate   =     -33.53633986 Ry
     estimated scf accuracy    <       0.01675522 Ry

     iteration #  2     ecut=    80.00 Ry     beta= 0.40
     Davidson diagonalization with overlap
     ethr =  7.98E-05,  avg # of iterations =  5.0

     negative rho (up, down):  6.504E-06 0.000E+00

     total cpu time spent up to now is      228.0 secs

     total energy              =     -31.68745954 Ry
     Harris-Foulkes estimate   =     -31.69924766 Ry
     estimated scf accuracy    <       0.05909172 Ry

     iteration #  3     ecut=    80.00 Ry     beta= 0.40
     Davidson diagonalization with overlap
     ethr =  7.98E-05,  avg # of iterations =  2.0

     negative rho (up, down):  5.294E-06 0.000E+00

     total cpu time spent up to now is      228.9 secs

     total energy              =     -31.69004155 Ry
     Harris-Foulkes estimate   =     -31.69090973 Ry
     estimated scf accuracy    <       0.00830833 Ry

     iteration #  4     ecut=    80.00 Ry     beta= 0.40
     Davidson diagonalization with overlap
     ethr =  3.96E-05,  avg # of iterations =  1.0

     negative rho (up, down):  1.485E-06 0.000E+00

     total cpu time spent up to now is      230.0 secs

     total energy              =     -31.68886679 Ry
     Harris-Foulkes estimate   =     -31.69023339 Ry
     estimated scf accuracy    <       0.00455302 Ry

     iteration #  5     ecut=    80.00 Ry     beta= 0.40
     Davidson diagonalization with overlap
     ethr =  2.17E-05,  avg # of iterations =  4.0

     negative rho (up, down):  1.414E-06 0.000E+00

     total cpu time spent up to now is      231.3 secs

     total energy              =     -31.68988359 Ry
     Harris-Foulkes estimate   =     -31.68990536 Ry
     estimated scf accuracy    <       0.00032485 Ry

     iteration #  6     ecut=    80.00 Ry     beta= 0.40
     Davidson diagonalization with overlap
     ethr =  1.55E-06,  avg # of iterations =  3.0

     negative rho (up, down):  1.426E-06 0.000E+00

     total cpu time spent up to now is      232.4 secs

     total energy              =     -31.68991427 Ry
     Harris-Foulkes estimate   =     -31.68995803 Ry
     estimated scf accuracy    <       0.00035424 Ry

     iteration #  7     ecut=    80.00 Ry     beta= 0.40
     Davidson diagonalization with overlap
     ethr =  1.55E-06,  avg # of iterations =  1.0

     negative rho (up, down):  5.634E-08 0.000E+00

     total cpu time spent up to now is      233.7 secs

     total energy              =     -31.68977735 Ry
     Harris-Foulkes estimate   =     -31.68992251 Ry
     estimated scf accuracy    <       0.00023989 Ry

     iteration #  8     ecut=    80.00 Ry     beta= 0.40
     Davidson diagonalization with overlap
     ethr =  1.14E-06,  avg # of iterations =  5.0

     negative rho (up, down):  3.766E-08 0.000E+00

     total cpu time spent up to now is      235.1 secs

     total energy              =     -31.68987249 Ry
     Harris-Foulkes estimate   =     -31.68997996 Ry
     estimated scf accuracy    <       0.00048430 Ry

     iteration #  9     ecut=    80.00 Ry     beta= 0.40
     Davidson diagonalization with overlap
     ethr =  1.14E-06,  avg # of iterations =  2.0

     negative rho (up, down):  5.002E-08 0.000E+00

     total cpu time spent up to now is      236.5 secs

     total energy              =     -31.68985278 Ry
     Harris-Foulkes estimate   =     -31.68989661 Ry
     estimated scf accuracy    <       0.00011471 Ry

     iteration # 10     ecut=    80.00 Ry     beta= 0.40
     Davidson diagonalization with overlap
     ethr =  5.46E-07,  avg # of iterations =  4.0

     negative rho (up, down):  3.386E-08 0.000E+00

     total cpu time spent up to now is      237.7 secs

     total energy              =     -31.68988776 Ry
     Harris-Foulkes estimate   =     -31.68988937 Ry
     estimated scf accuracy    <       0.00002603 Ry

     iteration # 11     ecut=    80.00 Ry     beta= 0.40
     Davidson diagonalization with overlap
     ethr =  1.24E-07,  avg # of iterations =  1.0

     total cpu time spent up to now is      238.9 secs

     total energy              =     -31.68988083 Ry
     Harris-Foulkes estimate   =     -31.68988872 Ry
     estimated scf accuracy    <       0.00001769 Ry

     iteration # 12     ecut=    80.00 Ry     beta= 0.40
     Davidson diagonalization with overlap
     ethr =  8.42E-08,  avg # of iterations =  3.0

     total cpu time spent up to now is      240.1 secs

     End of self-consistent calculation

          k = 0.0000 0.0000 0.0000 (111965 PWs)   bands (ev):

    -9.6429  -7.8606  -7.8587  -7.4270  -6.6160  -6.6144  -4.9344  -3.7879
    -2.9719  -2.5055  -2.5052  -2.0545  -2.0532  -1.6651  -0.9068

     the Fermi energy is    -2.3954 ev

!    total energy              =     -31.68988432 Ry
     Harris-Foulkes estimate   =     -31.68988465 Ry
     estimated scf accuracy    <       0.00000090 Ry

     The total energy is the sum of the following terms:

     one-electron contribution =    -107.29696213 Ry
     hartree contribution      =      55.75334964 Ry
     xc contribution           =     -13.72326720 Ry
     ewald contribution        =      33.60251304 Ry
     smearing contrib. (-TS)   =      -0.02551767 Ry

     convergence has been achieved in  12 iterations

     Forces acting on atoms (cartesian axes, Ry/au):

     atom    1 type  1   force =     0.00000825   -0.01923675    0.00000000
     atom    2 type  1   force =    -0.00580177   -0.00339197    0.00000000
     atom    3 type  1   force =     0.00581699   -0.00338524    0.00000000
     atom    4 type  1   force =    -0.01660895    0.00961916    0.00000000
     atom    5 type  1   force =    -0.00002801    0.00005371    0.00000000
     atom    6 type  1   force =     0.01657308    0.00961829    0.00000000
     atom    7 type  1   force =     0.00004042    0.00672281    0.00000000

     Total force =     0.035232     Total SCF correction =     0.000495


     Computing stress (Cartesian axis) and pressure

          total   stress  (Ry/bohr**3)                   (kbar)     P=   -2.94
  -0.00002999  -0.00000007   0.00000000         -4.41     -0.01      0.00
  -0.00000007  -0.00002981   0.00000000         -0.01     -4.39      0.00
   0.00000000   0.00000000  -0.00000012          0.00      0.00     -0.02


     number of scf cycles    =   9
     number of bfgs steps    =   8

     enthalpy old            =     -31.6867709642 Ry
     enthalpy new            =     -31.6898843242 Ry

     CASE: enthalpy_new < enthalpy_old

     new trust radius        =       0.2638285678 bohr
     new conv_thr            =       0.0000010000 Ry

     new unit-cell volume =   8591.51920 a.u.^3 (  1273.13178 Ang^3 )
     density =      0.27374 g/cm^3

CELL_PARAMETERS (alat= 16.84048341)
   0.962034245   0.000000386   0.000000000
  -0.481016788   0.833184843   0.000000000
   0.000000000   0.000000000   2.244265901

ATOMIC_POSITIONS (angstrom)
Al       0.000556771   2.455832903   0.000000000
Al       2.488703361   1.437087291   0.000000000
Al       6.084167461   1.436257845   0.000000000
Al      -2.159521917   6.197836161   0.000000000
Al       0.000379091   4.949860042   0.000000000
Al       2.160148973   6.197460409   0.000000000
Al       4.285656735   4.551015453   0.000000000



     Writing output data file 3al_planar_2x2_vcr.save/
     NEW-OLD atomic charge density approx. for the potential

     negative rho (up, down):  1.762E-05 0.000E+00
     extrapolated charge   20.39898, renormalised to   21.00000

     total cpu time spent up to now is      254.9 secs

     Self-consistent Calculation

     iteration #  1     ecut=    80.00 Ry     beta= 0.40
     Davidson diagonalization with overlap
     ethr =  1.00E-06,  avg # of iterations = 11.0

     negative rho (up, down):  1.077E-05 0.000E+00

     total cpu time spent up to now is      257.7 secs

     total energy              =     -31.66151614 Ry
     Harris-Foulkes estimate   =     -34.55087686 Ry
     estimated scf accuracy    <       0.03290010 Ry

     iteration #  2     ecut=    80.00 Ry     beta= 0.40
     Davidson diagonalization with overlap
     ethr =  1.57E-04,  avg # of iterations =  4.0

     negative rho (up, down):  9.061E-06 0.000E+00

     total cpu time spent up to now is      259.0 secs

     total energy              =     -31.68890248 Ry
     Harris-Foulkes estimate   =     -31.71127026 Ry
     estimated scf accuracy    <       0.11189373 Ry

     iteration #  3     ecut=    80.00 Ry     beta= 0.40
     Davidson diagonalization with overlap
     ethr =  1.57E-04,  avg # of iterations =  2.0

     negative rho (up, down):  7.364E-06 0.000E+00

     total cpu time spent up to now is      260.3 secs

     total energy              =     -31.69361046 Ry
     Harris-Foulkes estimate   =     -31.69535948 Ry
     estimated scf accuracy    <       0.01702851 Ry

     iteration #  4     ecut=    80.00 Ry     beta= 0.40
     Davidson diagonalization with overlap
     ethr =  8.11E-05,  avg # of iterations =  1.0

     negative rho (up, down):  2.935E-06 0.000E+00

     total cpu time spent up to now is      261.3 secs

     total energy              =     -31.69153627 Ry
     Harris-Foulkes estimate   =     -31.69400458 Ry
     estimated scf accuracy    <       0.00960672 Ry

     iteration #  5     ecut=    80.00 Ry     beta= 0.40
     Davidson diagonalization with overlap
     ethr =  4.57E-05,  avg # of iterations =  4.0

     negative rho (up, down):  2.479E-06 0.000E+00

     total cpu time spent up to now is      262.5 secs

     total energy              =     -31.69311605 Ry
     Harris-Foulkes estimate   =     -31.69321111 Ry
     estimated scf accuracy    <       0.00062143 Ry

     iteration #  6     ecut=    80.00 Ry     beta= 0.40
     Davidson diagonalization with overlap
     ethr =  2.96E-06,  avg # of iterations =  5.0

     negative rho (up, down):  1.580E-06 0.000E+00

     total cpu time spent up to now is      264.1 secs

     total energy              =     -31.69317070 Ry
     Harris-Foulkes estimate   =     -31.69325576 Ry
     estimated scf accuracy    <       0.00032015 Ry

     iteration #  7     ecut=    80.00 Ry     beta= 0.40
     Davidson diagonalization with overlap
     ethr =  1.52E-06,  avg # of iterations =  5.0

     negative rho (up, down):  2.190E-07 0.000E+00

     total cpu time spent up to now is      265.3 secs

     total energy              =     -31.69304441 Ry
     Harris-Foulkes estimate   =     -31.69332753 Ry
     estimated scf accuracy    <       0.00071250 Ry

     iteration #  8     ecut=    80.00 Ry     beta= 0.40
     Davidson diagonalization with overlap
     ethr =  1.52E-06,  avg # of iterations =  5.0

     negative rho (up, down):  5.705E-08 0.000E+00

     total cpu time spent up to now is      267.0 secs

     total energy              =     -31.69323214 Ry
     Harris-Foulkes estimate   =     -31.69324838 Ry
     estimated scf accuracy    <       0.00017061 Ry

     iteration #  9     ecut=    80.00 Ry     beta= 0.40
     Davidson diagonalization with overlap
     ethr =  8.12E-07,  avg # of iterations =  1.0

     negative rho (up, down):  1.973E-08 0.000E+00

     total cpu time spent up to now is      268.0 secs

     total energy              =     -31.69318800 Ry
     Harris-Foulkes estimate   =     -31.69323488 Ry
     estimated scf accuracy    <       0.00011992 Ry

     iteration # 10     ecut=    80.00 Ry     beta= 0.40
     Davidson diagonalization with overlap
     ethr =  5.71E-07,  avg # of iterations =  4.0

     total cpu time spent up to now is      269.4 secs

     total energy              =     -31.69321239 Ry
     Harris-Foulkes estimate   =     -31.69321459 Ry
     estimated scf accuracy    <       0.00000791 Ry

     iteration # 11     ecut=    80.00 Ry     beta= 0.40
     Davidson diagonalization with overlap
     ethr =  3.77E-08,  avg # of iterations =  3.0

     total cpu time spent up to now is      270.7 secs

     total energy              =     -31.69321335 Ry
     Harris-Foulkes estimate   =     -31.69321393 Ry
     estimated scf accuracy    <       0.00000151 Ry

     iteration # 12     ecut=    80.00 Ry     beta= 0.40
     Davidson diagonalization with overlap
     ethr =  7.18E-09,  avg # of iterations =  5.0

     total cpu time spent up to now is      272.0 secs

     total energy              =     -31.69321375 Ry
     Harris-Foulkes estimate   =     -31.69321410 Ry
     estimated scf accuracy    <       0.00000116 Ry

     iteration # 13     ecut=    80.00 Ry     beta= 0.40
     Davidson diagonalization with overlap
     ethr =  5.50E-09,  avg # of iterations =  2.0

     total cpu time spent up to now is      273.3 secs

     End of self-consistent calculation

          k = 0.0000 0.0000 0.0000 (111965 PWs)   bands (ev):

    -9.6878  -7.7714  -7.7689  -7.4588  -6.6441  -6.6417  -5.3282  -3.8169
    -2.7910  -2.3815  -2.3811  -1.9672  -1.9657  -1.6913  -0.9055

     the Fermi energy is    -2.2843 ev

!    total energy              =     -31.69321377 Ry
     Harris-Foulkes estimate   =     -31.69321385 Ry
     estimated scf accuracy    <       0.00000011 Ry

     The total energy is the sum of the following terms:

     one-electron contribution =    -109.74825129 Ry
     hartree contribution      =      56.98558473 Ry
     xc contribution           =     -13.72304482 Ry
     ewald contribution        =      34.82499657 Ry
     smearing contrib. (-TS)   =      -0.03249895 Ry

     convergence has been achieved in  13 iterations

     Forces acting on atoms (cartesian axes, Ry/au):

     atom    1 type  1   force =    -0.00000958   -0.02370496    0.00000000
     atom    2 type  1   force =    -0.01059479   -0.00629695    0.00000000
     atom    3 type  1   force =     0.01064095   -0.00627468    0.00000000
     atom    4 type  1   force =    -0.02048389    0.01193713    0.00000000
     atom    5 type  1   force =    -0.00007858    0.00003287    0.00000000
     atom    6 type  1   force =     0.02046984    0.01197052    0.00000000
     atom    7 type  1   force =     0.00005605    0.01233607    0.00000000

     Total force =     0.046293     Total SCF correction =     0.000197


     Computing stress (Cartesian axis) and pressure

          total   stress  (Ry/bohr**3)                   (kbar)     P=   -3.48
  -0.00003570  -0.00000012   0.00000000         -5.25     -0.02      0.00
  -0.00000012  -0.00003539   0.00000000         -0.02     -5.21      0.00
   0.00000000   0.00000000   0.00000003          0.00      0.00      0.00


     number of scf cycles    =  10
     number of bfgs steps    =   9

     enthalpy old            =     -31.6898843242 Ry
     enthalpy new            =     -31.6932137714 Ry

     CASE: enthalpy_new < enthalpy_old

     new trust radius        =       0.3380231328 bohr
     new conv_thr            =       0.0000010000 Ry

     new unit-cell volume =   8281.37959 a.u.^3 (  1227.17383 Ang^3 )
     density =      0.28399 g/cm^3

CELL_PARAMETERS (alat= 16.84048341)
   0.944492534  -0.000005128   0.000000000
  -0.472250707   0.818026836   0.000000000
   0.000000000   0.000000000   2.244265901

ATOMIC_POSITIONS (angstrom)
Al       0.000761372   2.378040206   0.000000000
Al       2.570428347   1.484247785   0.000000000
Al       5.845959699   1.483008482   0.000000000
Al      -2.148575225   6.101991295   0.000000000
Al       0.000408026   4.859738837   0.000000000
Al       2.149395505   6.101487254   0.000000000
Al       4.207066319   4.321365953   0.000000000



     Writing output data file 3al_planar_2x2_vcr.save/
     NEW-OLD atomic charge density approx. for the potential

     negative rho (up, down):  1.563E-05 0.000E+00
     extrapolated charge   20.21419, renormalised to   21.00000

     total cpu time spent up to now is      288.5 secs

     Self-consistent Calculation

     iteration #  1     ecut=    80.00 Ry     beta= 0.40
     Davidson diagonalization with overlap
     ethr =  1.00E-06,  avg # of iterations = 12.0

     negative rho (up, down):  9.694E-06 0.000E+00

     total cpu time spent up to now is      291.2 secs

     total energy              =     -31.65100057 Ry
     Harris-Foulkes estimate   =     -35.55373983 Ry
     estimated scf accuracy    <       0.04551498 Ry

     iteration #  2     ecut=    80.00 Ry     beta= 0.40
     Davidson diagonalization with overlap
     ethr =  2.17E-04,  avg # of iterations =  4.0

     negative rho (up, down):  8.033E-06 0.000E+00

     total cpu time spent up to now is      292.6 secs

     total energy              =     -31.69459387 Ry
     Harris-Foulkes estimate   =     -31.71897153 Ry
     estimated scf accuracy    <       0.11782895 Ry

     iteration #  3     ecut=    80.00 Ry     beta= 0.40
     Davidson diagonalization with overlap
     ethr =  2.17E-04,  avg # of iterations =  2.0

     negative rho (up, down):  6.482E-06 0.000E+00

     total cpu time spent up to now is      293.9 secs

     total energy              =     -31.69932360 Ry
     Harris-Foulkes estimate   =     -31.70147266 Ry
     estimated scf accuracy    <       0.02112675 Ry

     iteration #  4     ecut=    80.00 Ry     beta= 0.40
     Davidson diagonalization with overlap
     ethr =  1.01E-04,  avg # of iterations =  1.0

     negative rho (up, down):  2.084E-06 0.000E+00

     total cpu time spent up to now is      295.1 secs

     total energy              =     -31.69590936 Ry
     Harris-Foulkes estimate   =     -31.69972011 Ry
     estimated scf accuracy    <       0.01287371 Ry

     iteration #  5     ecut=    80.00 Ry     beta= 0.40
     Davidson diagonalization with overlap
     ethr =  6.13E-05,  avg # of iterations =  4.0

     negative rho (up, down):  1.832E-06 0.000E+00

     total cpu time spent up to now is      296.2 secs

     total energy              =     -31.69788696 Ry
     Harris-Foulkes estimate   =     -31.69797702 Ry
     estimated scf accuracy    <       0.00047497 Ry

     iteration #  6     ecut=    80.00 Ry     beta= 0.40
     Davidson diagonalization with overlap
     ethr =  2.26E-06,  avg # of iterations =  5.0

     negative rho (up, down):  5.184E-07 0.000E+00

     total cpu time spent up to now is      297.9 secs

     total energy              =     -31.69798753 Ry
     Harris-Foulkes estimate   =     -31.69804683 Ry
     estimated scf accuracy    <       0.00026532 Ry

     iteration #  7     ecut=    80.00 Ry     beta= 0.40
     Davidson diagonalization with overlap
     ethr =  1.26E-06,  avg # of iterations =  4.0

     negative rho (up, down):  1.532E-07 0.000E+00

     total cpu time spent up to now is      299.1 secs

     total energy              =     -31.69795294 Ry
     Harris-Foulkes estimate   =     -31.69805386 Ry
     estimated scf accuracy    <       0.00023946 Ry

     iteration #  8     ecut=    80.00 Ry     beta= 0.40
     Davidson diagonalization with overlap
     ethr =  1.14E-06,  avg # of iterations =  5.0

     negative rho (up, down):  4.912E-08 0.000E+00

     total cpu time spent up to now is      300.5 secs

     total energy              =     -31.69802376 Ry
     Harris-Foulkes estimate   =     -31.69804817 Ry
     estimated scf accuracy    <       0.00014558 Ry

     iteration #  9     ecut=    80.00 Ry     beta= 0.40
     Davidson diagonalization with overlap
     ethr =  6.93E-07,  avg # of iterations =  1.0

     total cpu time spent up to now is      301.6 secs

     total energy              =     -31.69800131 Ry
     Harris-Foulkes estimate   =     -31.69802860 Ry
     estimated scf accuracy    <       0.00006720 Ry

     iteration # 10     ecut=    80.00 Ry     beta= 0.40
     Davidson diagonalization with overlap
     ethr =  3.20E-07,  avg # of iterations =  5.0

     total cpu time spent up to now is      302.8 secs

     total energy              =     -31.69801566 Ry
     Harris-Foulkes estimate   =     -31.69801661 Ry
     estimated scf accuracy    <       0.00000459 Ry

     iteration # 11     ecut=    80.00 Ry     beta= 0.40
     Davidson diagonalization with overlap
     ethr =  2.19E-08,  avg # of iterations =  4.0

     total cpu time spent up to now is      304.3 secs

     total energy              =     -31.69801594 Ry
     Harris-Foulkes estimate   =     -31.69801650 Ry
     estimated scf accuracy    <       0.00000188 Ry

     iteration # 12     ecut=    80.00 Ry     beta= 0.40
[...]

          k = 0.0000 0.0000 0.0000 (111965 PWs)   bands (ev):

   -10.6299  -8.0020  -7.9978  -7.9841  -7.0243  -6.8992  -6.8973  -4.3472
    -2.1130  -1.9837  -1.9761  -1.8383  -1.8349  -1.7966  -0.8638

     the Fermi energy is    -1.9905 ev

!    total energy              =     -31.73686675 Ry
     Harris-Foulkes estimate   =     -31.73686674 Ry
     estimated scf accuracy    <          8.9E-09 Ry

     The total energy is the sum of the following terms:

     one-electron contribution =    -131.15911167 Ry
     hartree contribution      =      67.63860905 Ry
     xc contribution           =     -14.01219708 Ry
     ewald contribution        =      45.86766445 Ry
     smearing contrib. (-TS)   =      -0.07183150 Ry

     convergence has been achieved in   5 iterations

     Forces acting on atoms (cartesian axes, Ry/au):

     atom    1 type  1   force =    -0.00018624    0.00166976    0.00000000
     atom    2 type  1   force =    -0.00078515   -0.00080678    0.00000000
     atom    3 type  1   force =     0.00099376   -0.00081530    0.00000000
     atom    4 type  1   force =     0.00090634   -0.00075062    0.00000000
     atom    5 type  1   force =    -0.00006206   -0.00036698    0.00000000
     atom    6 type  1   force =    -0.00095735   -0.00058447    0.00000000
     atom    7 type  1   force =     0.00009069    0.00165439    0.00000000

     Total force =     0.003357     Total SCF correction =     0.000027


     Computing stress (Cartesian axis) and pressure

          total   stress  (Ry/bohr**3)                   (kbar)     P=   -0.05
  -0.00000218   0.00000005   0.00000000         -0.32      0.01      0.00
   0.00000005   0.00000127   0.00000000          0.01      0.19      0.00
   0.00000000   0.00000000  -0.00000001          0.00      0.00     -0.00


     number of scf cycles    =  28
     number of bfgs steps    =  25

     enthalpy old            =     -31.7372519457 Ry
     enthalpy new            =     -31.7368667480 Ry

     CASE: enthalpy_new > enthalpy_old

     new trust radius        =       0.0000012534 bohr

     trust_radius < trust_radius_min

     resetting bfgs history

     Message from routine bfgs:
     history already reset at previous step: stopping
     new conv_thr            =       0.0000000100 Ry

     new unit-cell volume =   7109.07377 a.u.^3 (  1053.45603 Ang^3 )
     density =      0.33082 g/cm^3

CELL_PARAMETERS (alat= 16.84048341)
   0.874716341  -0.000019347   0.000000000
  -0.437374953   0.758251626   0.000000000
   0.000000000   0.000000000   2.244265901

ATOMIC_POSITIONS (angstrom)
Al       0.000528365   1.958490907   0.000000000
Al       2.518431179   1.455003812   0.000000000
Al       5.275708134   1.455454462   0.000000000
Al      -2.203238754   5.779122394   0.000000000
Al       0.000189035   4.503615751   0.000000000
Al       2.203069412   5.778376733   0.000000000
Al       3.897613806   3.846164897   0.000000000



     Writing output data file 3al_planar_2x2_vcr.save/
     NEW-OLD atomic charge density approx. for the potential

     total cpu time spent up to now is      829.9 secs

     Self-consistent Calculation

     iteration #  1     ecut=    80.00 Ry     beta= 0.40
     Davidson diagonalization with overlap
     ethr =  1.00E-06,  avg # of iterations =  1.0

     Threshold (ethr) on eigenvalues was too large:
     Diagonalizing with lowered threshold

     Davidson diagonalization with overlap
     ethr =  5.47E-11,  avg # of iterations =  6.0

     total cpu time spent up to now is      832.0 secs

     total energy              =     -31.73686678 Ry
     Harris-Foulkes estimate   =     -31.73686681 Ry
     estimated scf accuracy    <       0.00000006 Ry

     iteration #  2     ecut=    80.00 Ry     beta= 0.40
     Davidson diagonalization with overlap
     ethr =  2.90E-10,  avg # of iterations =  3.0

     total cpu time spent up to now is      833.1 secs

     total energy              =     -31.73686679 Ry
     Harris-Foulkes estimate   =     -31.73686681 Ry
     estimated scf accuracy    <       0.00000005 Ry

     iteration #  3     ecut=    80.00 Ry     beta= 0.40
     Davidson diagonalization with overlap
     ethr =  2.36E-10,  avg # of iterations =  2.0

     total cpu time spent up to now is      834.0 secs

     End of self-consistent calculation

          k = 0.0000 0.0000 0.0000 (111965 PWs)   bands (ev):

   -10.6299  -8.0021  -7.9979  -7.9841  -7.0244  -6.8992  -6.8973  -4.3473
    -2.1130  -1.9837  -1.9761  -1.8383  -1.8350  -1.7966  -0.8640

     the Fermi energy is    -1.9905 ev

!    total energy              =     -31.73686680 Ry
     Harris-Foulkes estimate   =     -31.73686680 Ry
     estimated scf accuracy    <          9.4E-10 Ry

     The total energy is the sum of the following terms:

     one-electron contribution =    -131.15927884 Ry
     hartree contribution      =      67.63878392 Ry
     xc contribution           =     -14.01220488 Ry
     ewald contribution        =      45.86766511 Ry
     smearing contrib. (-TS)   =      -0.07183209 Ry

     convergence has been achieved in   3 iterations

     Forces acting on atoms (cartesian axes, Ry/au):

     atom    1 type  1   force =    -0.00018213    0.00166370    0.00000000
     atom    2 type  1   force =    -0.00076379   -0.00080937    0.00000000
     atom    3 type  1   force =     0.00096474   -0.00081662    0.00000000
     atom    4 type  1   force =     0.00090425   -0.00074892    0.00000000
     atom    5 type  1   force =    -0.00005857   -0.00036698    0.00000000
     atom    6 type  1   force =    -0.00095186   -0.00057633    0.00000000
     atom    7 type  1   force =     0.00008735    0.00165452    0.00000000

     Total force =     0.003337     Total SCF correction =     0.000013


     Computing stress (Cartesian axis) and pressure

          total   stress  (Ry/bohr**3)                   (kbar)     P=   -0.05
  -0.00000220   0.00000005   0.00000000         -0.32      0.01      0.00
   0.00000005   0.00000123   0.00000000          0.01      0.18      0.00
   0.00000000   0.00000000   0.00000001          0.00      0.00      0.00


     bfgs converged in  29 scf cycles and  25 bfgs steps
     (criteria: energy <  1.0E-05 Ry, force <  1.0E-04Ry/Bohr, cell <  5.0E-05kbar)

     End of BFGS Geometry Optimization

     Final enthalpy =     -31.7368667953 Ry
Begin final coordinates
     new unit-cell volume =   7109.07377 a.u.^3 (  1053.45603 Ang^3 )
     density =      0.33082 g/cm^3

CELL_PARAMETERS (alat= 16.84048341)
   0.874716341  -0.000019347   0.000000000
  -0.437374953   0.758251626   0.000000000
   0.000000000   0.000000000   2.244265901

ATOMIC_POSITIONS (angstrom)
Al       0.000528365   1.958490907   0.000000000
Al       2.518431179   1.455003812   0.000000000
Al       5.275708134   1.455454462   0.000000000
Al      -2.203238754   5.779122394   0.000000000
Al       0.000189035   4.503615751   0.000000000
Al       2.203069412   5.778376733   0.000000000
Al       3.897613806   3.846164897   0.000000000
End final coordinates



     Writing output data file 3al_planar_2x2_vcr.save/

     A final scf calculation at the relaxed structure.
     The G-vectors are recalculated for the final unit cell
     Results may differ from those at the preceding step.
 
     Parallelization info
     --------------------
     sticks:   dense  smooth     PW     G-vecs:    dense   smooth      PW
     Min         595     595    148                85901    85901   10724
     Max         597     597    149                85905    85905   10735
     Sum        4769    4769   1189               687223   687223   85839
 


     bravais-lattice index     =            4
     lattice parameter (alat)  =      16.8405  a.u.
     unit-cell volume          =    7109.0738 (a.u.)^3
     number of atoms/cell      =            7
     number of atomic types    =            1
     number of electrons       =        21.00
     number of Kohn-Sham states=           15
     kinetic-energy cutoff     =      80.0000  Ry
     charge density cutoff     =     320.0000  Ry
     convergence threshold     =      1.0E-08
     mixing beta               =       0.4000
     number of iterations used =            8  plain     mixing
     Exchange-correlation      = PBE ( 1  4  3  4 0 0)

     celldm(1)=  16.840483  celldm(2)=   0.000000  celldm(3)=   2.244266
     celldm(4)=   0.000000  celldm(5)=   0.000000  celldm(6)=   0.000000

     crystal axes: (cart. coord. in units of alat)
               a(1) = (   0.874716  -0.000019   0.000000 )  
               a(2) = (  -0.437375   0.758252   0.000000 )  
               a(3) = (   0.000000   0.000000   2.244266 )  

     reciprocal axes: (cart. coord. in units 2 pi/alat)
               b(1) = (  1.143242  0.659445  0.000000 )  
               b(2) = (  0.000029  1.318840  0.000000 )  
               b(3) = (  0.000000  0.000000  0.445580 )  


     PseudoPot. # 1 for Al read from file:
     ./Al.upf
     MD5 check sum: 4974d48a734c9d7d1eb6780a1419d19d
     Pseudo is Norm-conserving + core correction, Zval =  3.0
     Generated using ONCVPSP code by D. R. Hamann
     Using radial grid of 1876 points,  6 beta functions with: 
                l(1) =   0
                l(2) =   0
                l(3) =   1
                l(4) =   1
                l(5) =   2
                l(6) =   2

     atomic species   valence    mass     pseudopotential
        Al             3.00    29.98200     Al( 1.00)

      2 Sym. Ops. (no inversion) found



   Cartesian axes

     site n.     atom                  positions (alat units)
         1           Al  tau(   1) = (   0.0000593   0.2197687   0.0000000  )
         2           Al  tau(   2) = (   0.2826015   0.1632708   0.0000000  )
         3           Al  tau(   3) = (   0.5920046   0.1633213   0.0000000  )
         4           Al  tau(   4) = (  -0.2472327   0.6484944   0.0000000  )
         5           Al  tau(   5) = (   0.0000212   0.5053656   0.0000000  )
         6           Al  tau(   6) = (   0.2472137   0.6484107   0.0000000  )
         7           Al  tau(   7) = (   0.4373641   0.4315908   0.0000000  )

     number of k points=     1  Methfessel-Paxton smearing, width (Ry)=  0.0500
                       cart. coord. in units 2pi/alat
        k(    1) = (   0.0000000   0.0000000   0.0000000), wk =   2.0000000

     Dense  grid:   687223 G-vectors     FFT dimensions: (  90,  90, 216)

     Estimated max dynamical RAM per process >     102.23 MB

     Estimated total dynamical RAM >     817.87 MB

     Initial potential from superposition of free atoms

     starting charge   20.98287, renormalised to   21.00000

     negative rho (up, down):  1.813E-05 0.000E+00
     Starting wfcs are   28 randomized atomic wfcs

     total cpu time spent up to now is      845.6 secs

     Self-consistent Calculation

     iteration #  1     ecut=    80.00 Ry     beta= 0.40
     Davidson diagonalization with overlap
     c_bands:  1 eigenvalues not converged
     ethr =  1.00E-06,  avg # of iterations = 20.0

     negative rho (up, down):  2.240E-06 0.000E+00

     total cpu time spent up to now is      847.8 secs

     total energy              =     -31.70761720 Ry
     Harris-Foulkes estimate   =     -31.80916684 Ry
     estimated scf accuracy    <       0.30925279 Ry

     iteration #  2     ecut=    80.00 Ry     beta= 0.40
     Davidson diagonalization with overlap
     ethr =  1.47E-03,  avg # of iterations =  1.0

     negative rho (up, down):  8.931E-07 0.000E+00

     total cpu time spent up to now is      848.6 secs

     total energy              =     -31.73406585 Ry
     Harris-Foulkes estimate   =     -31.73780603 Ry
     estimated scf accuracy    <       0.02080260 Ry

     iteration #  3     ecut=    80.00 Ry     beta= 0.40
     Davidson diagonalization with overlap
     ethr =  9.91E-05,  avg # of iterations =  2.0

     negative rho (up, down):  4.949E-07 0.000E+00

     total cpu time spent up to now is      849.4 secs

     total energy              =     -31.73590572 Ry
     Harris-Foulkes estimate   =     -31.73706355 Ry
     estimated scf accuracy    <       0.00607203 Ry

     iteration #  4     ecut=    80.00 Ry     beta= 0.40
     Davidson diagonalization with overlap
     ethr =  2.89E-05,  avg # of iterations =  3.0

     negative rho (up, down):  3.710E-08 0.000E+00

     total cpu time spent up to now is      850.3 secs

     total energy              =     -31.73658430 Ry
     Harris-Foulkes estimate   =     -31.73683519 Ry
     estimated scf accuracy    <       0.00175338 Ry

     iteration #  5     ecut=    80.00 Ry     beta= 0.40
     Davidson diagonalization with overlap
     ethr =  8.35E-06,  avg # of iterations =  2.0

     negative rho (up, down):  1.974E-08 0.000E+00

     total cpu time spent up to now is      851.2 secs

     total energy              =     -31.73679287 Ry
     Harris-Foulkes estimate   =     -31.73682728 Ry
     estimated scf accuracy    <       0.00013087 Ry

     iteration #  6     ecut=    80.00 Ry     beta= 0.40
     Davidson diagonalization with overlap
     ethr =  6.23E-07,  avg # of iterations =  3.0

     total cpu time spent up to now is      852.2 secs

     total energy              =     -31.73682306 Ry
     Harris-Foulkes estimate   =     -31.73682916 Ry
     estimated scf accuracy    <       0.00003631 Ry

     iteration #  7     ecut=    80.00 Ry     beta= 0.40
     Davidson diagonalization with overlap
     ethr =  1.73E-07,  avg # of iterations =  4.0

     total cpu time spent up to now is      853.3 secs

     total energy              =     -31.73683180 Ry
     Harris-Foulkes estimate   =     -31.73683175 Ry
     estimated scf accuracy    <       0.00000758 Ry

     iteration #  8     ecut=    80.00 Ry     beta= 0.40
     Davidson diagonalization with overlap
     ethr =  3.61E-08,  avg # of iterations =  4.0

     total cpu time spent up to now is      854.2 secs

     total energy              =     -31.73683291 Ry
     Harris-Foulkes estimate   =     -31.73683337 Ry
     estimated scf accuracy    <       0.00000273 Ry

     iteration #  9     ecut=    80.00 Ry     beta= 0.40
     Davidson diagonalization with overlap
     ethr =  1.30E-08,  avg # of iterations =  3.0

     total cpu time spent up to now is      855.2 secs

     total energy              =     -31.73683326 Ry
     Harris-Foulkes estimate   =     -31.73683329 Ry
     estimated scf accuracy    <       0.00000014 Ry

     iteration # 10     ecut=    80.00 Ry     beta= 0.40
     Davidson diagonalization with overlap
     ethr =  6.63E-10,  avg # of iterations =  5.0

     total cpu time spent up to now is      856.5 secs

     total energy              =     -31.73683325 Ry
     Harris-Foulkes estimate   =     -31.73683330 Ry
     estimated scf accuracy    <       0.00000019 Ry

     iteration # 11     ecut=    80.00 Ry     beta= 0.40
     Davidson diagonalization with overlap
     ethr =  6.63E-10,  avg # of iterations =  3.0

     total cpu time spent up to now is      857.7 secs

     total energy              =     -31.73683322 Ry
     Harris-Foulkes estimate   =     -31.73683323 Ry
     estimated scf accuracy    <       0.00000003 Ry

     iteration # 12     ecut=    80.00 Ry     beta= 0.40
     Davidson diagonalization with overlap
     ethr =  1.41E-10,  avg # of iterations =  5.0

     total cpu time spent up to now is      858.8 secs

     total energy              =     -31.73683320 Ry
     Harris-Foulkes estimate   =     -31.73683321 Ry
     estimated scf accuracy    <       0.00000002 Ry

     iteration # 13     ecut=    80.00 Ry     beta= 0.40
     Davidson diagonalization with overlap
     ethr =  1.09E-10,  avg # of iterations =  4.0

     total cpu time spent up to now is      860.1 secs

     End of self-consistent calculation

          k = 0.0000 0.0000 0.0000 ( 85839 PWs)   bands (ev):

   -10.6300  -8.0021  -7.9979  -7.9841  -7.0244  -6.8992  -6.8973  -4.3473
    -2.1130  -1.9837  -1.9761  -1.8384  -1.8350  -1.7966  -0.8639

     the Fermi energy is    -1.9905 ev

!    total energy              =     -31.73683319 Ry
     Harris-Foulkes estimate   =     -31.73683319 Ry
     estimated scf accuracy    <          5.8E-10 Ry

     The total energy is the sum of the following terms:

     one-electron contribution =    -131.15919371 Ry
     hartree contribution      =      67.63873481 Ry
     xc contribution           =     -14.01220695 Ry
     ewald contribution        =      45.86766511 Ry
     smearing contrib. (-TS)   =      -0.07183245 Ry

     convergence has been achieved in  13 iterations

     Forces acting on atoms (cartesian axes, Ry/au):

     atom    1 type  1   force =    -0.00018153    0.00165780    0.00000000
     atom    2 type  1   force =    -0.00075960   -0.00080566    0.00000000
     atom    3 type  1   force =     0.00096059   -0.00081266    0.00000000
     atom    4 type  1   force =     0.00090524   -0.00074638    0.00000000
     atom    5 type  1   force =    -0.00005838   -0.00036398    0.00000000
     atom    6 type  1   force =    -0.00095385   -0.00057432    0.00000000
     atom    7 type  1   force =     0.00008752    0.00164521    0.00000000

     Total force =     0.003325     Total SCF correction =     0.000009


     Computing stress (Cartesian axis) and pressure

          total   stress  (Ry/bohr**3)                   (kbar)     P=   -0.05
  -0.00000219   0.00000005   0.00000000         -0.32      0.01      0.00
   0.00000005   0.00000124   0.00000000          0.01      0.18      0.00
   0.00000000   0.00000000  -0.00000001          0.00      0.00     -0.00


     Writing output data file 3al_planar_2x2_vcr.save/
 
     init_run     :      7.89s CPU      8.07s WALL (       2 calls)
     electrons    :    415.26s CPU    421.12s WALL (      30 calls)
     update_pot   :    154.03s CPU    155.01s WALL (      28 calls)
     forces       :     89.91s CPU     90.40s WALL (      30 calls)
     stress       :    183.79s CPU    186.55s WALL (      30 calls)

     Called by init_run:
     wfcinit      :      0.73s CPU      0.77s WALL (       2 calls)
     potinit      :      2.68s CPU      2.73s WALL (       2 calls)
     hinit0       :      3.92s CPU      4.00s WALL (       2 calls)

     Called by electrons:
     c_bands      :    276.36s CPU    279.25s WALL (     325 calls)
     sum_band     :     50.32s CPU     50.97s WALL (     325 calls)
     v_of_rho     :     75.76s CPU     76.49s WALL (     352 calls)
     mix_rho      :     14.32s CPU     14.69s WALL (     325 calls)

     Called by c_bands:
     init_us_2    :      6.91s CPU      6.99s WALL (     652 calls)
     cegterg      :    220.33s CPU    222.75s WALL (     325 calls)

     Called by sum_band:

     Called by *egterg:
     h_psi        :    196.08s CPU    198.22s WALL (    1398 calls)
     g_psi        :      1.50s CPU      1.50s WALL (    1071 calls)
     cdiaghg      :      0.84s CPU      0.87s WALL (    1365 calls)

     Called by h_psi:
     h_psi:pot    :    195.56s CPU    197.62s WALL (    1398 calls)
     h_psi:calbec :     18.32s CPU     18.43s WALL (    1398 calls)
     vloc_psi     :    158.21s CPU    160.04s WALL (    1398 calls)
     add_vuspsi   :     19.03s CPU     19.14s WALL (    1398 calls)

     General routines
     calbec       :     21.03s CPU     21.24s WALL (    1548 calls)
     fft          :     55.66s CPU     56.40s WALL (    4301 calls)
     ffts         :      4.08s CPU      4.11s WALL (     325 calls)
     fftw         :    175.16s CPU    177.24s WALL (   33141 calls)
 
     Parallel routines
     fft_scatt_xy :     21.61s CPU     21.80s WALL (   37767 calls)
     fft_scatt_yz :    136.01s CPU    137.97s WALL (   37767 calls)
 
     PWSCF        : 14m12.48s CPU    14m24.72s WALL

 
   This run was terminated on:  11:27:16  25Nov2020            

=------------------------------------------------------------------------------=
   JOB DONE.
=------------------------------------------------------------------------------=
